----- GAMESS execution script 'rungms' -----
This job is running on host chemcompute-node-0.novalocal
under operating system Linux at Sun Nov 7 21:50:37 UTC 2021
SLURM has assigned the following compute nodes to this run:
chemcompute-node-0
Available scratch disk space (Kbyte units) at beginning of the job is
Filesystem     1K-blocks     Used Available Use% Mounted on
/dev/sda1       62903276 16837332  46065944  27% /
GAMESS temporary binary files will be written to /scratch/302822
GAMESS supplementary output files will be written to /data/slurm/337923
Copying input file 337923.inp to your run's scratch directory...
The generated host list is
chemcompute-node-0.novalocal

 Distributed Data Interface kickoff program.
 Initiating 1 compute processes on 1 nodes to run the following command:
 /data/gamess-2019R1-ddi/gamess.00.x 337923 

          ******************************************************
          *         GAMESS VERSION = 30 JUN 2019 (R1)          *
          *             FROM IOWA STATE UNIVERSITY             *
          * M.W.SCHMIDT, K.K.BALDRIDGE, J.A.BOATZ, S.T.ELBERT, *
          *   M.S.GORDON, J.H.JENSEN, S.KOSEKI, N.MATSUNAGA,   *
          *          K.A.NGUYEN, S.J.SU, T.L.WINDUS,           *
          *       TOGETHER WITH M.DUPUIS, J.A.MONTGOMERY       *
          *         J.COMPUT.CHEM.  14, 1347-1363(1993)        *
          **************** 64 BIT LINUX VERSION ****************

  SINCE 1993, STUDENTS AND POSTDOCS WORKING AT IOWA STATE UNIVERSITY
  AND ALSO IN THEIR VARIOUS JOBS AFTER LEAVING ISU HAVE MADE IMPORTANT
  CONTRIBUTIONS TO THE CODE:
     IVANA ADAMOVIC, CHRISTINE AIKENS, YURI ALEXEEV, POOJA ARORA,
     ANDREY ASADCHEV, ROB BELL, PRADIPTA BANDYOPADHYAY, JONATHAN BENTZ,
     COLLEEN BERTONI, BRETT BODE, KURT BRORSEN, CALEB CARLIN, GALINA CHABAN,
     WEI CHEN, CHEOL HO CHOI, PAUL DAY, ALBERT DEFUSCO, NUWAN DESILVA,
     TIM DUDLEY, DMITRI FEDOROV, ALEX FINDLATER, GRAHAM FLETCHER, 
     MARK FREITAG, KURT GLAESEMANN, ANASTASIA GUNINA,
     DAN KEMP, GRANT MERRILL, NORIYUKI MINEZAWA, JONATHAN MULLIN,
     TAKESHI NAGATA, SEAN NEDD, HEATHER NETZLOFF, BOSILJKA NJEGIC, RYAN OLSON,
     MIKE PAK, BUU PHAM,
     SPENCER PRUITT, LUKE ROSKOP, JIM SHOEMAKER, LYUDMILA SLIPCHENKO,
     TONY SMITH, SAROM SOK LEANG, JIE SONG, TETSUYA TAKETSUGU, SIMON WEBB,
     PENG XU, SOOHAENG YOO, FEDERICO ZAHARIEV

  ADDITIONAL CODE HAS BEEN PROVIDED BY COLLABORATORS IN OTHER GROUPS:
     IOWA STATE UNIVERSITY:
          JOE IVANIC, AARON WEST, LAIMUTIS BYTAUTAS, KLAUS RUEDENBERG
     UNIVERSITY OF TOKYO: KIMIHIKO HIRAO, TAKAHITO NAKAJIMA,
          TAKAO TSUNEDA, MUNEAKI KAMIYA, SUSUMU YANAGISAWA,
          KIYOSHI YAGI, MAHITO CHIBA, SEIKEN TOKURA, NAOAKI KAWAKAMI
     UNIVERSITY OF AARHUS: FRANK JENSEN
     UNIVERSITY OF IOWA: VISVALDAS KAIRYS, HUI LI
     NATIONAL INST. OF STANDARDS AND TECHNOLOGY: WALT STEVENS, DAVID GARMER
     UNIVERSITY OF PISA: BENEDETTA MENNUCCI, JACOPO TOMASI
     UNIVERSITY OF MEMPHIS: HENRY KURTZ, PRAKASHAN KORAMBATH
     UNIVERSITY OF ALBERTA: TOBY ZENG, MARIUSZ KLOBUKOWSKI
     UNIVERSITY OF NEW ENGLAND: MARK SPACKMAN
     MIE UNIVERSITY: HIROAKI UMEDA
     NAT. INST. OF ADVANCED INDUSTRIAL SCIENCE AND TECHNOLOGY: KAZUO KITAURA
     MICHIGAN STATE UNIVERSITY:
          KAROL KOWALSKI, MARTA WLOCH, JEFFREY GOUR, JESSE LUTZ,
          WEI LI, JUN SHEN, J. EMILIANO DEUSTUA, PIOTR PIECUCH
     UNIVERSITY OF MINNESOTA:
          YINAN SHU
     UNIVERSITY OF SILESIA: MONIKA MUSIAL, STANISLAW KUCHARSKI
     FACULTES UNIVERSITAIRES NOTRE-DAME DE LA PAIX:
          OLIVIER QUINET, BENOIT CHAMPAGNE
     UNIVERSITY OF CALIFORNIA - SANTA BARBARA: BERNARD KIRTMAN
     INSTITUTE FOR MOLECULAR SCIENCE:
          KAZUYA ISHIMURA, MICHIO KATOUDA, AND SHIGERU NAGASE
     UNIVERSITY OF NOTRE DAME: ANNA POMOGAEVA, DAN CHIPMAN
     KYUSHU UNIVERSITY:
          HARUYUKI NAKANO,
          FENG LONG GU, JACEK KORCHOWIEC, MARCIN MAKOWSKI, AND YURIKO AOKI,
          HIROTOSHI MORI AND EISAKU MIYOSHI
     PENNSYLVANIA STATE UNIVERSITY:
          TZVETELIN IORDANOV, CHET SWALINA, JONATHAN SKONE,
          SHARON HAMMES-SCHIFFER
     WASEDA UNIVERSITY:
          MASATO KOBAYASHI, TOMOKO AKAMA, TSUGUKI TOUMA,
          TAKESHI YOSHIKAWA, YASUHIRO IKABATA, JUNJI SEINO,
          YUYA NAKAJIMA, HIROMI NAKAI
     NANJING UNIVERSITY: SHUHUA LI
     UNIVERSITY OF NEBRASKA:
          PEIFENG SU, DEJUN SI, NANDUN THELLAMUREGE, YALI WANG, HUI LI
     UNIVERSITY OF ZURICH: ROBERTO PEVERATI, KIM BALDRIDGE
     N. COPERNICUS UNIVERSITY AND JACKSON STATE UNIVERSITY:
          MARIA BARYSZ
     UNIVERSITY OF COPENHAGEN: Jimmy Kromann, CASPER STEINMANN
     TOKYO INSTITUTE OF TECHNOLOGY: HIROYA NAKATA
     NAGOYA UNIVERSITY: YOSHIO NISHIMOTO, STEPHAN IRLE
     MOSCOW STATE UNIVERSITY: VLADIMIR MIRONOV
     A.N.NESMEYANOV INSTITUTE OF ORGANOELEMENT COMPOUNDS OF RUSSIAN ACADEMY OF SCIENCES:
          IGOR S. GERASIMOV

 EXECUTION OF GAMESS BEGUN Sun Nov  7 21:50:38 2021

            ECHO OF THE FIRST FEW INPUT CARDS -
 INPUT CARD>!File created by the GAMESS Input Deck Generator Plugin for Avogadro            
 INPUT CARD> $BASIS GBASIS=STO NGAUSS=3 $END                                                
 INPUT CARD> $CONTRL SCFTYP=RHF RUNTYP=IRC $END                                             
 INPUT CARD> $STATPT  HESS=READ ihrep=5 $END                                                
 INPUT CARD> $irc npoint=100 saddle=.t. tsengy=.t. forwrd=.f. opttol=0.0005 stride=0.1 $end 
 INPUT CARD>                                                                                
 INPUT CARD>                                                                                
 INPUT CARD> $DATA                                                                          
 INPUT CARD>Title                                                                           
 INPUT CARD>C1                                                                              
 INPUT CARD>C     6.0     3.51238608    -0.84521562    -2.82799697                          
 INPUT CARD>C     6.0     2.72567296    -1.12904155    -1.69776297                          
 INPUT CARD>C     6.0     2.83395386    -0.29861340    -0.56987470                          
 INPUT CARD>C     6.0     4.67647552    -0.36183494     0.00835283                          
 INPUT CARD>C     6.0     5.34772253    -1.20183754    -0.89657611                          
 INPUT CARD>C     6.0     5.35181618    -0.78260130    -2.24056029                          
 INPUT CARD>C     6.0     5.65190744     0.68683612    -2.43724728                          
 INPUT CARD>C     6.0     5.51064301     1.56224442    -1.46393967                          
 INPUT CARD>C     6.0     5.01944923     1.13535070    -0.09899232                          
 INPUT CARD>O     8.0     4.89970112     1.90796494     0.84135729                          
 INPUT CARD>H     1.0     3.50788736    -1.57859683    -3.62818170                          
 INPUT CARD>H     1.0     3.48171473     0.16982803    -3.20647597                          
 INPUT CARD>H     1.0     2.47640371    -2.16885972    -1.52000630                          
 INPUT CARD>H     1.0     2.78020215     0.76989383    -0.74459291                          
 INPUT CARD>H     1.0     2.29016995    -0.59294194     0.32172865                          
 INPUT CARD>H     1.0     4.59973764    -0.69873536     1.03852987                          
 INPUT CARD>H     1.0     5.42668486    -2.25920606    -0.67545170                          
 INPUT CARD>H     1.0     5.84061146    -1.42924583    -2.96358728                          
 INPUT CARD>H     1.0     5.99208593     0.98978430    -3.42157650                          
 INPUT CARD>H     1.0     5.75267506     2.60935402    -1.58956289                          
 INPUT CARD> $END                                                                           
 INPUT CARD>                                                                                
 INPUT CARD> $HESS                                                                          
 INPUT CARD>ENERGY IS     -416.0940647145 E(NUC) IS      511.4290745867                     
 INPUT CARD> 1  1 1.08237386E-01 2.12017018E-02-1.52551280E-01-1.08018039E-01-9.25104802E-02
 INPUT CARD> 1  2 1.68985321E-02 1.22961122E-01 6.11351469E-02 1.14075489E-01-1.50757984E-01
 INPUT CARD> 1  3 5.63320052E-02 2.45660939E-02 1.20868017E-02-2.20195400E-02-1.89261032E-01
 INPUT CARD> 1  4 1.49140468E-01-7.63626075E-03 1.68233249E-01-3.48014157E-02-2.86046515E-02
 INPUT CARD> 1  5-1.30499366E-02-6.66191499E-03 8.02725702E-03 7.22855708E-03 1.16262820E-02
 INPUT CARD> 1  6-2.07595257E-03 3.84789388E-03-2.26473290E-03 3.51344561E-03 2.59410666E-04
 INPUT CARD> 1  7-4.57916299E-02-2.93436032E-03 1.17032854E-02-2.12719829E-02 9.05354874E-03
 INPUT CARD> 1  8 1.65846902E-02 6.52338571E-04 3.58523172E-03 5.57494857E-03-2.14881428E-02
 INPUT CARD> 1  9-1.50563028E-03-4.80183248E-03-9.38304318E-04-7.57480789E-04-2.18081269E-03
 INPUT CARD> 1 10 7.47954927E-03 1.58438479E-03 1.04182536E-03 3.31870423E-04-1.37073445E-03
 INPUT CARD> 1 11 1.25468920E-03-2.57064476E-02-4.85528592E-03-1.07302621E-02 1.62601966E-03
 INPUT CARD> 1 12 3.41776962E-04 3.51950924E-04 3.55586137E-03-5.05249824E-04 9.53385288E-04
 INPUT CARD> 2  1 2.12017018E-02 8.90695946E-01 1.74031091E-02-4.20938665E-02-1.79472039E-01
 INPUT CARD> 2  2 3.06489756E-02 3.66896122E-02 2.37129769E-02-8.01917737E-03-2.32613371E-02
 INPUT CARD> 2  3 8.32775442E-03 9.75384251E-04 7.63852774E-03-1.65362796E-03-1.87614440E-02
 INPUT CARD> 2  4 2.58359838E-02-4.59571053E-02 1.79339450E-02-1.91414089E-02-4.91229951E-03
    1000000 WORDS OF MEMORY AVAILABLE

     BASIS OPTIONS
     -------------
     GBASIS=STO          IGAUSS=       3      POLAR=NONE    
     NDFUNC=       0     NFFUNC=       0     DIFFSP=       F
     NPFUNC=       0      DIFFS=       F     BASNAM=        


     RUN TITLE
     ---------
 Title                                                                           

 THE POINT GROUP OF THE MOLECULE IS C1      
 THE ORDER OF THE PRINCIPAL AXIS IS     0

 ATOM      ATOMIC                      COORDINATES (BOHR)
           CHARGE         X                   Y                   Z
 C           6.0     6.6374472543       -1.5972259223       -5.3441393674
 C           6.0     5.1507750265       -2.1335791583       -3.2083068054
 C           6.0     5.3553962572       -0.5642975023       -1.0769070303
 C           6.0     8.8372573211       -0.6837688894        0.0157845599
 C           6.0    10.1057302401       -2.2711436324       -1.6942831750
 C           6.0    10.1134661169       -1.4789020146       -4.2340450071
 C           6.0    10.6805563696        1.2979320653       -4.6057295235
 C           6.0    10.4136053051        2.9522138796       -2.7664448389
 C           6.0     9.4853836540        2.1455017230       -0.1870683597
 O           8.0     9.2590925385        3.6055309308        1.5899347359
 H           1.0     6.6289459062       -2.9831154538       -6.8562692467
 H           1.0     6.5794868071        0.3209284417       -6.0593609695
 H           1.0     4.6797244469       -4.0985505766       -2.8723954066
 H           1.0     5.2538202540        1.4548883783       -1.4070765723
 H           1.0     4.3277936708       -1.1204977932        0.6079789909
 H           1.0     8.6922437550       -1.3204183683        1.9625368844
 H           1.0    10.2549474071       -4.2692804032       -1.2764186309
 H           1.0    11.0371552601       -2.7008829878       -5.6003678999
 H           1.0    11.3234005026        1.8704211139       -6.4658420310
 H           1.0    10.8709795598        4.9309641028       -3.0038383024

          INTERNUCLEAR DISTANCES (ANGS.)
          ------------------------------

                1 C          2 C          3 C          4 C          5 C     

   1 C       0.0000000    1.4060240 *  2.4203637 *  3.1038108    2.6881268 *
   2 C       1.4060240 *  0.0000000    1.4048016 *  2.7027889 *  2.7426891 *
   3 C       2.4203637 *  1.4048016 *  0.0000000    1.9321569 *  2.6910185 *
   4 C       3.1038108    2.7027889 *  1.9321569 *  0.0000000    1.4053730 *
   5 C       2.6881268 *  2.7426891 *  2.6910185 *  1.4053730 *  0.0000000  
   6 C       1.9319693 *  2.7039375 *  3.0602394    2.3855271 *  1.4078598 *
   7 C       2.6603420 *  3.5223709    3.5212290    2.8341027 *  2.4562745 *
   8 C       3.4131433    3.8799165    3.3803563    2.5623353 *  2.8264100 *
   9 C       3.6934196    3.5979090    2.6560070 *  1.5397139 *  2.4912551 *
  10 O       4.7925783    4.5162970    3.3358470    2.4281099 *  3.5905441  
  11 H       1.0854326 *  2.1308392 *  3.3831621    4.0088017    3.3149073  
  12 H       1.0837438 *  2.1295249 *  2.7551221 *  3.4706257    3.2709462  
  13 H       2.1298199 *  1.0839531 *  2.1280069 *  3.2313366    3.0932618  
  14 H       2.7359175 *  2.1254322 *  1.0840311 *  2.3331502 *  3.2408308  
  15 H       3.3879530    2.1343411 *  1.0850285 *  2.4178646 *  3.3471851  
  16 H       4.0191815    3.3443356    2.4217876 *  1.0865796 *  2.1347666 *
  17 H       3.2089500    3.1012671    3.2522798    2.1518410 *  1.0831248 *
  18 H       2.4041858 *  3.3756889    4.0060179    3.3655618    2.1370983 *
  19 H       3.1414125    4.2579819    4.4458936    3.9143480    3.4050018  
  20 H       4.2996122    4.8114499    4.2444048    3.5411162    3.8947912  

                6 C          7 C          8 C          9 C         10 O     

   1 C       1.9319693 *  2.6603420 *  3.4131433    3.6934196    4.7925783  
   2 C       2.7039375 *  3.5223709    3.8799165    3.5979090    4.5162970  
   3 C       3.0602394    3.5212290    3.3803563    2.6560070 *  3.3358470  
   4 C       2.3855271 *  2.8341027 *  2.5623353 *  1.5397139 *  2.4281099 *
   5 C       1.4078598 *  2.4562745 *  2.8264100 *  2.4912551 *  3.5905441  
   6 C       0.0000000    1.5126093 *  2.4752105 *  2.8940147 *  4.1160382  
   7 C       1.5126093 *  0.0000000    1.3166712 *  2.4634539 *  3.5785776  
   8 C       2.4752105 *  1.3166712 *  0.0000000    1.5121478 *  2.4098064 *
   9 C       2.8940147 *  2.4634539 *  1.5121478 *  0.0000000    1.2229185 *
  10 O       4.1160382    3.5785776    2.4098064 *  1.2229185 *  0.0000000  
  11 H       2.4411423 *  3.3387622    4.3081153    4.7016495    5.8369545  
  12 H       2.3102801 *  2.3598192 *  3.0152622    3.5990716    4.6278245  
  13 H       3.2724467    4.3680835    4.8094584    4.4050162    5.2980098  
  14 H       3.3557947    3.3344668    2.9326757 *  2.3589375 *  2.8814440 *
  15 H       3.9968704    4.5333276    4.2667184    3.2577549    3.6516027  
  16 H       3.3652768    3.8868878    3.4934413    2.1986328 *  2.6313004 *
  17 H       2.1530285 *  3.4400310    3.9028510    3.4671547    4.4658410  
  18 H       1.0862035 *  2.1887087 *  3.3625639    3.9315858    5.1478045  
  19 H       2.2239819 *  1.0846211 *  2.0956717 *  3.4650797    4.4954382  
  20 H       3.4770456    2.1035204 *  1.0820348 *  2.2208346 *  2.6699970 *

               11 H         12 H         13 H         14 H         15 H     

   1 C       1.0854326 *  1.0837438 *  2.1298199 *  2.7359175 *  3.3879530  
   2 C       2.1308392 *  2.1295249 *  1.0839531 *  2.1254322 *  2.1343411 *
   3 C       3.3831621    2.7551221 *  2.1280069 *  1.0840311 *  1.0850285 *
   4 C       4.0088017    3.4706257    3.2313366    2.3331502 *  2.4178646 *
   5 C       3.3149073    3.2709462    3.0932618    3.2408308    3.3471851  
   6 C       2.4411423 *  2.3102801 *  3.2724467    3.3557947    3.9968704  
   7 C       3.3387622    2.3598192 *  4.3680835    3.3344668    4.5333276  
   8 C       4.3081153    3.0152622    4.8094584    2.9326757 *  4.2667184  
   9 C       4.7016495    3.5990716    4.4050162    2.3589375 *  3.2577549  
  10 O       5.8369545    4.6278245    5.2980098    2.8814440 *  3.6516027  
  11 H       0.0000000    1.7987524 *  2.4200769 *  3.7894615    4.2492521  
  12 H       1.7987524 *  0.0000000    3.0535701    2.6292712 *  3.8012925  
  13 H       2.4200769 *  3.0535701    0.0000000    3.0544773    2.4310877 *
  14 H       3.7894615    2.6292712 *  3.0544773    0.0000000    1.7984701 *
  15 H       4.2492521    3.8012925    2.4310877 *  1.7984701 *  0.0000000  
  16 H       4.8728318    4.4748690    3.6353707    2.9405965 *  2.4205576 *
  17 H       3.5865899    4.0111344    3.0701130    4.0229464    3.6889742  
  18 H       2.4301426 *  2.8601444 *  3.7348157    4.3733576    4.9090060  
  19 H       3.5791773    2.6496340 *  5.0944109    4.1869787    5.4974119  
  20 H       5.1704904    3.7044508    5.7939726    3.5962735    5.0888777  

               16 H         17 H         18 H         19 H         20 H     

   1 C       4.0191815    3.2089500    2.4041858 *  3.1414125    4.2996122  
   2 C       3.3443356    3.1012671    3.3756889    4.2579819    4.8114499  
   3 C       2.4217876 *  3.2522798    4.0060179    4.4458936    4.2444048  
   4 C       1.0865796 *  2.1518410 *  3.3655618    3.9143480    3.5411162  
   5 C       2.1347666 *  1.0831248 *  2.1370983 *  3.4050018    3.8947912  
   6 C       3.3652768    2.1530285 *  1.0862035 *  2.2239819 *  3.4770456  
   7 C       3.8868878    3.4400310    2.1887087 *  1.0846211 *  2.1035204 *
   8 C       3.4934413    3.9028510    3.3625639    2.0956717 *  1.0820348 *
   9 C       2.1986328 *  3.4671547    3.9315858    3.4650797    2.2208346 *
  10 O       2.6313004 *  4.4658410    5.1478045    4.4954382    2.6699970 *
  11 H       4.8728318    3.5865899    2.4301426 *  3.5791773    5.1704904  
  12 H       4.4748690    4.0111344    2.8601444 *  2.6496340 *  3.7044508  
  13 H       3.6353707    3.0701130    3.7348157    5.0944109    5.7939726  
  14 H       2.9405965 *  4.0229464    4.3733576    4.1869787    3.5962735  
  15 H       2.4205576 *  3.6889742    4.9090060    5.4974119    5.0888777  
  16 H       0.0000000    2.4610249 *  4.2532758    4.9681265    4.3794511  
  17 H       2.4610249 *  0.0000000    2.4689540 *  4.2914820    4.9643475  
  18 H       4.2532758    2.4689540 *  0.0000000    2.4666588 *  4.2668448  
  19 H       4.9681265    4.2914820    2.4666588 *  0.0000000    2.4569488 *
  20 H       4.3794511    4.9643475    4.2668448    2.4569488 *  0.0000000  

  * ... LESS THAN  3.000


     ATOMIC BASIS SET
     ----------------
 THE CONTRACTED PRIMITIVE FUNCTIONS HAVE BEEN UNNORMALIZED
 THE CONTRACTED BASIS FUNCTIONS ARE NOW NORMALIZED TO UNITY

  SHELL TYPE  PRIMITIVE        EXPONENT          CONTRACTION COEFFICIENT(S)

 C         

      1   S       1            71.6168373    0.154328967295
      1   S       2            13.0450963    0.535328142282
      1   S       3             3.5305122    0.444634542185

      2   L       4             2.9412494   -0.099967229187    0.155916274999
      2   L       5             0.6834831    0.399512826089    0.607683718598
      2   L       6             0.2222899    0.700115468880    0.391957393099

 C         

      3   S       7            71.6168373    0.154328967295
      3   S       8            13.0450963    0.535328142282
      3   S       9             3.5305122    0.444634542185

      4   L      10             2.9412494   -0.099967229187    0.155916274999
      4   L      11             0.6834831    0.399512826089    0.607683718598
      4   L      12             0.2222899    0.700115468880    0.391957393099

 C         

      5   S      13            71.6168373    0.154328967295
      5   S      14            13.0450963    0.535328142282
      5   S      15             3.5305122    0.444634542185

      6   L      16             2.9412494   -0.099967229187    0.155916274999
      6   L      17             0.6834831    0.399512826089    0.607683718598
      6   L      18             0.2222899    0.700115468880    0.391957393099

 C         

      7   S      19            71.6168373    0.154328967295
      7   S      20            13.0450963    0.535328142282
      7   S      21             3.5305122    0.444634542185

      8   L      22             2.9412494   -0.099967229187    0.155916274999
      8   L      23             0.6834831    0.399512826089    0.607683718598
      8   L      24             0.2222899    0.700115468880    0.391957393099

 C         

      9   S      25            71.6168373    0.154328967295
      9   S      26            13.0450963    0.535328142282
      9   S      27             3.5305122    0.444634542185

     10   L      28             2.9412494   -0.099967229187    0.155916274999
     10   L      29             0.6834831    0.399512826089    0.607683718598
     10   L      30             0.2222899    0.700115468880    0.391957393099

 C         

     11   S      31            71.6168373    0.154328967295
     11   S      32            13.0450963    0.535328142282
     11   S      33             3.5305122    0.444634542185

     12   L      34             2.9412494   -0.099967229187    0.155916274999
     12   L      35             0.6834831    0.399512826089    0.607683718598
     12   L      36             0.2222899    0.700115468880    0.391957393099

 C         

     13   S      37            71.6168373    0.154328967295
     13   S      38            13.0450963    0.535328142282
     13   S      39             3.5305122    0.444634542185

     14   L      40             2.9412494   -0.099967229187    0.155916274999
     14   L      41             0.6834831    0.399512826089    0.607683718598
     14   L      42             0.2222899    0.700115468880    0.391957393099

 C         

     15   S      43            71.6168373    0.154328967295
     15   S      44            13.0450963    0.535328142282
     15   S      45             3.5305122    0.444634542185

     16   L      46             2.9412494   -0.099967229187    0.155916274999
     16   L      47             0.6834831    0.399512826089    0.607683718598
     16   L      48             0.2222899    0.700115468880    0.391957393099

 C         

     17   S      49            71.6168373    0.154328967295
     17   S      50            13.0450963    0.535328142282
     17   S      51             3.5305122    0.444634542185

     18   L      52             2.9412494   -0.099967229187    0.155916274999
     18   L      53             0.6834831    0.399512826089    0.607683718598
     18   L      54             0.2222899    0.700115468880    0.391957393099

 O         

     19   S      55           130.7093214    0.154328967295
     19   S      56            23.8088661    0.535328142282
     19   S      57             6.4436083    0.444634542185

     20   L      58             5.0331513   -0.099967229187    0.155916274999
     20   L      59             1.1695961    0.399512826089    0.607683718598
     20   L      60             0.3803890    0.700115468880    0.391957393099

 H         

     21   S      61             3.4252509    0.154328967295
     21   S      62             0.6239137    0.535328142282
     21   S      63             0.1688554    0.444634542185

 H         

     22   S      64             3.4252509    0.154328967295
     22   S      65             0.6239137    0.535328142282
     22   S      66             0.1688554    0.444634542185

 H         

     23   S      67             3.4252509    0.154328967295
     23   S      68             0.6239137    0.535328142282
     23   S      69             0.1688554    0.444634542185

 H         

     24   S      70             3.4252509    0.154328967295
     24   S      71             0.6239137    0.535328142282
     24   S      72             0.1688554    0.444634542185

 H         

     25   S      73             3.4252509    0.154328967295
     25   S      74             0.6239137    0.535328142282
     25   S      75             0.1688554    0.444634542185

 H         

     26   S      76             3.4252509    0.154328967295
     26   S      77             0.6239137    0.535328142282
     26   S      78             0.1688554    0.444634542185

 H         

     27   S      79             3.4252509    0.154328967295
     27   S      80             0.6239137    0.535328142282
     27   S      81             0.1688554    0.444634542185

 H         

     28   S      82             3.4252509    0.154328967295
     28   S      83             0.6239137    0.535328142282
     28   S      84             0.1688554    0.444634542185

 H         

     29   S      85             3.4252509    0.154328967295
     29   S      86             0.6239137    0.535328142282
     29   S      87             0.1688554    0.444634542185

 H         

     30   S      88             3.4252509    0.154328967295
     30   S      89             0.6239137    0.535328142282
     30   S      90             0.1688554    0.444634542185

 TOTAL NUMBER OF BASIS SET SHELLS             =   30
 NUMBER OF CARTESIAN GAUSSIAN BASIS FUNCTIONS =   60
 NUMBER OF ELECTRONS                          =   72
 CHARGE OF MOLECULE                           =    0
 SPIN MULTIPLICITY                            =    1
 NUMBER OF OCCUPIED ORBITALS (ALPHA)          =   36
 NUMBER OF OCCUPIED ORBITALS (BETA )          =   36
 TOTAL NUMBER OF ATOMS                        =   20
 THE NUCLEAR REPULSION ENERGY IS      511.4290745867

     $CONTRL OPTIONS
     ---------------
 SCFTYP=RHF          RUNTYP=IRC          EXETYP=RUN     
 MPLEVL=       0     CITYP =NONE         CCTYP =NONE         VBTYP =NONE    
 DFTTYP=NONE         TDDFT =NONE    
 MULT  =       1     ICHARG=       0     NZVAR =       0     COORD =UNIQUE  
 PP    =NONE         RELWFN=NONE         LOCAL =NONE         NUMGRD=       F
 ISPHER=      -1     NOSYM =       0     MAXIT =      30     UNITS =ANGS    
 PLTORB=       F     MOLPLT=       F     AIMPAC=       F     FRIEND=        
 NPRINT=       7     IREST =       0     GEOM  =INPUT   
 NORMF =       0     NORMP =       0     ITOL  =      20     ICUT  =       9
 INTTYP=BEST         GRDTYP=BEST         QMTTOL= 1.0E-06

     $SYSTEM OPTIONS
     ---------------
  REPLICATED MEMORY=     1000000 WORDS (ON EVERY NODE).
 DISTRIBUTED MEMDDI=           0 MILLION WORDS IN AGGREGATE,
 MEMDDI DISTRIBUTED OVER   1 PROCESSORS IS           0 WORDS/PROCESSOR.
 TOTAL MEMORY REQUESTED ON EACH PROCESSOR=     1000000 WORDS.
 TIMLIM=      525600.00 MINUTES, OR     365.0 DAYS.
 PARALL= F  BALTYP=  DLB     KDIAG=    0  COREFL= F
 MXSEQ2=     300 MXSEQ3=     150  mem10=         0

          ----------------
          PROPERTIES INPUT
          ----------------

     MOMENTS            FIELD           POTENTIAL          DENSITY
 IEMOM =       1   IEFLD =       0   IEPOT =       0   IEDEN =       0
 WHERE =COMASS     WHERE =NUCLEI     WHERE =NUCLEI     WHERE =NUCLEI  
 OUTPUT=BOTH       OUTPUT=BOTH       OUTPUT=BOTH       OUTPUT=BOTH    
 IEMINT=       0   IEFINT=       0                     IEDINT=       0
                                                       MORB  =       0
          EXTRAPOLATION IN EFFECT
          SOSCF IN EFFECT
 ORBITAL PRINTING OPTION: NPREO=     1    60     2     1

     -------------------------------
     INTEGRAL TRANSFORMATION OPTIONS
     -------------------------------
     NWORD  =            0
     CUTOFF = 1.0E-09     MPTRAN =       0
     DIRTRF =       F     AOINTS =DUP     

          ----------------------
          INTEGRAL INPUT OPTIONS
          ----------------------
 NOPK  =       1 NORDER=       0 SCHWRZ=       T

     ------------------------------------------
     THE POINT GROUP IS C1 , NAXIS= 0, ORDER= 1
     ------------------------------------------

     DIMENSIONS OF THE SYMMETRY SUBSPACES ARE
 A   =   60

 ..... DONE SETTING UP THE RUN .....
 STEP CPU TIME =     0.06 TOTAL CPU TIME =          0.1 (      0.0 MIN)
 TOTAL WALL CLOCK TIME=          0.1 SECONDS, CPU UTILIZATION IS    85.71%

          -----------------------------
          INTRINSIC REACTION COORDINATE
          -----------------------------
          PACE   =GS2     
          STRIDE = 0.10000 BOHR*SQRT(AMU)
          NPOINT =     100
          NEXTPT =       0
          STOTAL =  0.0000 BOHR*SQRT(AMU)
          SAB    =  0.0000 BOHR*SQRT(AMU)
          NPRT   =       0
          NPUN   =       0

          SADDLE =       T
          TSENGY =       T
          FORWRD =       F
          EVIB   = 0.00050 HARTREE
          FREQ   =     0.0 CM**-1

          STABLZ =       F
          ELBOW  =  175.00 DEGREES
          DELTA  = 0.02500 BOHR

          READQB =       F
          EB     =        0.0000000000 HARTREES
          GBNORM =        0.0000000000 HARTREES/SQRT(AMU)-BOHR

          GCUT   = 0.0000500 HARTREES/SQRT(AMU)-BOHR
          RCUT   = 0.0005000 BOHR
          ACUT   =    5.00 DEGREES
          MXOPT  =      20
          IHUPD  =       2

 ATOMIC MASSES USED (IN AMU) ARE
     C             12.0000
     C             12.0000
     C             12.0000
     C             12.0000
     C             12.0000
     C             12.0000
     C             12.0000
     C             12.0000
     C             12.0000
     O             15.9949
     H              1.0078
     H              1.0078
     H              1.0078
     H              1.0078
     H              1.0078
     H              1.0078
     H              1.0078
     H              1.0078
     H              1.0078
     H              1.0078

 JUMP AWAY FROM SADDLE POINT WILL BE FOUND FROM THE INPUT HESSIAN MATRIX

 COMPUTING WAVEFUNCTION AT TRANSITION STATE...

          ********************
          1 ELECTRON INTEGRALS
          ********************
 ...... END OF ONE-ELECTRON INTEGRALS ......
 STEP CPU TIME =     0.02 TOTAL CPU TIME =          0.1 (      0.0 MIN)
 TOTAL WALL CLOCK TIME=          0.1 SECONDS, CPU UTILIZATION IS    80.00%

          -------------
          GUESS OPTIONS
          -------------
          GUESS =HUCKEL            NORB  =       0          NORDER=       0
          MIX   =       F          PRTMO =       F          PUNMO =       F
          TOLZ  = 1.0E-08          TOLE  = 1.0E-05
          SYMDEN=       F          PURIFY=       F

 INITIAL GUESS ORBITALS GENERATED BY HUCKEL   ROUTINE.
 HUCKEL GUESS REQUIRES     53820 WORDS.

 SYMMETRIES FOR INITIAL GUESS ORBITALS FOLLOW.   BOTH SET(S).
    36 ORBITALS ARE OCCUPIED (   10 CORE ORBITALS).
    11=A       12=A       13=A       14=A       15=A       16=A       17=A   
    18=A       19=A       20=A       21=A       22=A       23=A       24=A   
    25=A       26=A       27=A       28=A       29=A       30=A       31=A   
    32=A       33=A       34=A       35=A       36=A       37=A       38=A   
    39=A       40=A       41=A       42=A       43=A       44=A       45=A   
    46=A   
 ...... END OF INITIAL ORBITAL SELECTION ......
 STEP CPU TIME =     0.02 TOTAL CPU TIME =          0.1 (      0.0 MIN)
 TOTAL WALL CLOCK TIME=          0.1 SECONDS, CPU UTILIZATION IS    83.33%

                    ----------------------
                    AO INTEGRAL TECHNOLOGY
                    ----------------------
     S,P,L SHELL ROTATED AXIS INTEGRALS, REPROGRAMMED BY
        KAZUYA ISHIMURA (IMS) AND JOSE SIERRA (SYNSTAR).
     S,P,D,L SHELL ROTATED AXIS INTEGRALS PROGRAMMED BY
        KAZUYA ISHIMURA (INSTITUTE FOR MOLECULAR SCIENCE).
     S,P,D,F,G SHELL TO TOTAL QUARTET ANGULAR MOMENTUM SUM 5,
        ERIC PROGRAM BY GRAHAM FLETCHER (ELORET AND NASA ADVANCED
        SUPERCOMPUTING DIVISION, AMES RESEARCH CENTER).
     S,P,D,F,G,L SHELL GENERAL RYS QUADRATURE PROGRAMMED BY
        MICHEL DUPUIS (PACIFIC NORTHWEST NATIONAL LABORATORY).

          --------------------
          2 ELECTRON INTEGRALS
          --------------------

 THE -PK- OPTION IS OFF, THE INTEGRALS ARE NOT IN SUPERMATRIX FORM.
 STORING   15000 INTEGRALS/RECORD ON DISK, USING 12 BYTES/INTEGRAL.
 TWO ELECTRON INTEGRAL EVALUATION REQUIRES   89821 WORDS OF MEMORY.
 SCHWARZ INEQUALITY OVERHEAD:      1797 INTEGRALS, T=        0.00
 II,JST,KST,LST =  1  1  1  1 NREC =         1 INTLOC =    1
 II,JST,KST,LST =  2  1  1  1 NREC =         1 INTLOC =    2
 II,JST,KST,LST =  3  1  1  1 NREC =         1 INTLOC =   34
 II,JST,KST,LST =  4  1  1  1 NREC =         1 INTLOC =  144
 II,JST,KST,LST =  5  1  1  1 NREC =         1 INTLOC = 1366
 II,JST,KST,LST =  6  1  1  1 NREC =         1 INTLOC = 1961
 II,JST,KST,LST =  7  1  1  1 NREC =         1 INTLOC = 6862
 II,JST,KST,LST =  8  1  1  1 NREC =         1 INTLOC = 8480
 II,JST,KST,LST =  9  1  1  1 NREC =         2 INTLOC = 5897
 II,JST,KST,LST = 10  1  1  1 NREC =         2 INTLOC = 9689
 II,JST,KST,LST = 11  1  1  1 NREC =         4 INTLOC = 5051
 II,JST,KST,LST = 12  1  1  1 NREC =         4 INTLOC =12147
 II,JST,KST,LST = 13  1  1  1 NREC =         7 INTLOC =12258
 II,JST,KST,LST = 14  1  1  1 NREC =         8 INTLOC = 8809
 II,JST,KST,LST = 15  1  1  1 NREC =        13 INTLOC = 6519
 II,JST,KST,LST = 16  1  1  1 NREC =        14 INTLOC = 9152
 II,JST,KST,LST = 17  1  1  1 NREC =        21 INTLOC =13319
 II,JST,KST,LST = 18  1  1  1 NREC =        23 INTLOC = 9530
 II,JST,KST,LST = 19  1  1  1 NREC =        34 INTLOC = 2804
 II,JST,KST,LST = 20  1  1  1 NREC =        35 INTLOC =13873
 II,JST,KST,LST = 21  1  1  1 NREC =        48 INTLOC = 4581
 II,JST,KST,LST = 22  1  1  1 NREC =        52 INTLOC =  856
 II,JST,KST,LST = 23  1  1  1 NREC =        56 INTLOC = 5400
 II,JST,KST,LST = 24  1  1  1 NREC =        60 INTLOC =10081
 II,JST,KST,LST = 25  1  1  1 NREC =        65 INTLOC = 9249
 II,JST,KST,LST = 26  1  1  1 NREC =        70 INTLOC =10547
 II,JST,KST,LST = 27  1  1  1 NREC =        76 INTLOC = 2610
 II,JST,KST,LST = 28  1  1  1 NREC =        81 INTLOC =13050
 II,JST,KST,LST = 29  1  1  1 NREC =        87 INTLOC =11407
 II,JST,KST,LST = 30  1  1  1 NREC =        93 INTLOC =14763
 SCHWARZ INEQUALITY TEST SKIPPED       24127 INTEGRAL BLOCKS.
 TOTAL NUMBER OF NONZERO TWO-ELECTRON INTEGRALS =             1492823
        100 INTEGRAL RECORDS WERE STORED ON DISK FILE  8.
  ...... END OF TWO-ELECTRON INTEGRALS .....
 STEP CPU TIME =     0.30 TOTAL CPU TIME =          0.4 (      0.0 MIN)
 TOTAL WALL CLOCK TIME=          0.4 SECONDS, CPU UTILIZATION IS    95.24%

          --------------------------
                 RHF SCF CALCULATION
          --------------------------

     NUCLEAR ENERGY =       511.4290745867
     MAXIT =   30     NPUNCH=    2
     EXTRAP=T  DAMP=F  SHIFT=F  RSTRCT=F  DIIS=F  DEM=F  SOSCF=T
     DENSITY MATRIX CONV=  1.00E-05
     SOSCF WILL OPTIMIZE     864 ORBITAL ROTATIONS, SOGTOL=   0.250
     MEMORY REQUIRED FOR RHF ITERS=     59496 WORDS.

 ITER EX DEM     TOTAL ENERGY        E CHANGE  DENSITY CHANGE     ORB. GRAD
   1  0  0     -415.5142737772  -415.5142737772   0.525859396   0.000000000
          ---------------START SECOND ORDER SCF---------------
   2  1  0     -416.0270673413    -0.5127935641   0.318798862   0.066088440
   3  2  0     -416.0575278850    -0.0304605437   0.153664579   0.049836485
   4  3  0     -416.0929947003    -0.0354668153   0.024825333   0.007796482
   5  4  0     -416.0939324553    -0.0009377550   0.005952370   0.003106924
   6  5  0     -416.0940492425    -0.0001167872   0.002364329   0.000765420
   7  6  0     -416.0940625008    -0.0000132583   0.000635862   0.000260788
   8  7  0     -416.0940644629    -0.0000019621   0.000267923   0.000072954
   9  8  0     -416.0940646657    -0.0000002029   0.000143680   0.000030747
  10  9  0     -416.0940647063    -0.0000000405   0.000092591   0.000016900
  11 10  0     -416.0940647130    -0.0000000068   0.000025330   0.000004080
  12 11  0     -416.0940647144    -0.0000000013   0.000010137   0.000001594
  13 12  0     -416.0940647145    -0.0000000002   0.000004396   0.000000697
  14 13  0     -416.0940647145    -0.0000000000   0.000001179   0.000000249

          -----------------
          DENSITY CONVERGED
          -----------------
     TIME TO FORM FOCK OPERATORS=       0.3 SECONDS (       0.0 SEC/ITER)
     TIME TO SOLVE SCF EQUATIONS=       0.1 SECONDS (       0.0 SEC/ITER)

 FINAL RHF ENERGY IS     -416.0940647145 AFTER  14 ITERATIONS

          ------------
          EIGENVECTORS
          ------------

                      1          2          3          4          5
                  -20.2645   -11.1197   -11.0567   -11.0499   -11.0469
                     A          A          A          A          A   
    1  C  1  S   -0.000000   0.000023  -0.026127  -0.005784   0.004744
    2  C  1  S    0.000003  -0.000004  -0.004001   0.000031   0.000145
    3  C  1  X    0.000001   0.000007  -0.002569  -0.000236  -0.000031
    4  C  1  Y   -0.000002   0.000015  -0.000076  -0.000012   0.000010
    5  C  1  Z   -0.000001   0.000004  -0.000876  -0.000195  -0.000016
    6  C  2  S   -0.000001   0.000011  -0.000490   0.000059  -0.001577
    7  C  2  S    0.000012  -0.000036   0.000325   0.000058   0.002278
    8  C  2  X   -0.000002   0.000036   0.000161   0.000041   0.000116
    9  C  2  Y   -0.000001   0.000012   0.000046   0.000046   0.000908
   10  C  2  Z    0.000010  -0.000053  -0.000145   0.000004   0.001269
   11  C  3  S   -0.000005  -0.000235  -0.000702   0.000851  -0.319133
   12  C  3  S   -0.000002   0.000319  -0.000025   0.000065  -0.014555
   13  C  3  X    0.000031  -0.000253  -0.000067   0.000012  -0.002106
   14  C  3  Y    0.000018   0.000024  -0.000005   0.000018   0.000151
   15  C  3  Z    0.000030  -0.000097   0.000058   0.000025  -0.000465
   16  C  4  S   -0.000024  -0.001691  -0.004273  -0.008204   0.939038
   17  C  4  S    0.000270  -0.005340  -0.000085  -0.000325   0.035031
   18  C  4  X   -0.000048  -0.000934   0.000032  -0.000052   0.000741
   19  C  4  Y    0.000196  -0.003901  -0.000085  -0.000072  -0.000370
   20  C  4  Z    0.000429   0.000063   0.000188   0.000147  -0.000391
   21  C  5  S    0.000003  -0.000284   0.003095  -0.001096   0.004059
   22  C  5  S    0.000030   0.000057  -0.006845   0.000031  -0.006587
   23  C  5  X   -0.000043  -0.000031  -0.000135  -0.000083   0.002012
   24  C  5  Y   -0.000048  -0.000036  -0.001296  -0.000107  -0.002575
   25  C  5  Z    0.000031   0.000000   0.004374   0.000053  -0.002881
   26  C  6  S    0.000003  -0.000243   0.991558   0.018908   0.004183
   27  C  6  S    0.000006  -0.000053   0.036317  -0.004974   0.000158
   28  C  6  X    0.000018  -0.000005   0.001250  -0.000869   0.000116
   29  C  6  Y   -0.000022  -0.000088   0.000202  -0.004019  -0.000144
   30  C  6  Z   -0.000029  -0.000051   0.001088   0.000376  -0.000080
   31  C  7  S    0.000005  -0.000271  -0.018109   0.991816   0.008070
   32  C  7  S    0.000054   0.000108  -0.006636   0.035848   0.000220
   33  C  7  X    0.000018  -0.000029   0.000717  -0.000258   0.000077
   34  C  7  Y    0.000072  -0.000071   0.004202   0.001164   0.000057
   35  C  7  Z   -0.000021   0.000045  -0.000709   0.001204  -0.000135
   36  C  8  S   -0.000025  -0.001006  -0.000981   0.020134  -0.001146
   37  C  8  S    0.000269  -0.005677   0.000303  -0.007398   0.000014
   38  C  8  X   -0.000002   0.001306   0.000011  -0.000496   0.000047
   39  C  8  Y    0.000419   0.000971  -0.000173   0.003022   0.000036
   40  C  8  Z    0.000298  -0.003785  -0.000002   0.003390   0.000029
   41  C  9  S    0.000547   0.992569   0.000254   0.000332   0.002459
   42  C  9  S   -0.007208   0.032683  -0.000002   0.000161  -0.005398
   43  C  9  X    0.000631  -0.000086  -0.000015  -0.000016   0.000753
   44  C  9  Y   -0.004043   0.000409   0.000032   0.000103   0.003922
   45  C  9  Z   -0.004907   0.000206   0.000135   0.000107  -0.000403
   46  O 10  S    0.994266   0.000160   0.000005   0.000013  -0.000018
   47  O 10  S    0.026004  -0.005797  -0.000052  -0.000116   0.000222
   48  O 10  X    0.000546  -0.000164  -0.000005  -0.000011  -0.000013
   49  O 10  Y   -0.003553   0.001072   0.000026   0.000026  -0.000216
   50  O 10  Z   -0.004323   0.001336   0.000021   0.000059   0.000021
   51  H 11  S   -0.000002   0.000002   0.000336  -0.000018  -0.000017
   52  H 12  S   -0.000002   0.000008   0.000337  -0.000975  -0.000033
   53  H 13  S   -0.000002   0.000007  -0.000001   0.000001  -0.000018
   54  H 14  S    0.000085  -0.001088   0.000005  -0.000048   0.002383
   55  H 15  S   -0.000007  -0.000036  -0.000022  -0.000016   0.002364
   56  H 16  S   -0.000178  -0.000019  -0.000094  -0.000002  -0.006635
   57  H 17  S   -0.000020  -0.000055   0.000086  -0.000084   0.000075
   58  H 18  S   -0.000015  -0.000024  -0.006942  -0.000096  -0.000141
   59  H 19  S   -0.000022  -0.000038   0.000207  -0.006826  -0.000109
   60  H 20  S   -0.000191   0.000013  -0.000034   0.000010  -0.000063

                      6          7          8          9         10
                  -11.0460   -11.0458   -11.0267   -11.0150   -11.0080
                     A          A          A          A          A   
    1  C  1  S   -0.200691   0.971262  -0.000211   0.000876  -0.002490
    2  C  1  S   -0.007224   0.035457   0.000043   0.000284  -0.007132
    3  C  1  X    0.000267  -0.001579   0.000005  -0.000067   0.002468
    4  C  1  Y   -0.000123   0.000077   0.000037   0.000056   0.000972
    5  C  1  Z   -0.000109  -0.000030  -0.000035  -0.000046  -0.003806
    6  C  2  S    0.002290   0.003837   0.000073  -0.016894   0.991973
    7  C  2  S   -0.004899  -0.007963   0.000026  -0.001097   0.036619
    8  C  2  X    0.000270  -0.002452   0.000008  -0.000662   0.002583
    9  C  2  Y   -0.002289  -0.001396  -0.000003   0.000100   0.000104
   10  C  2  Z   -0.004097   0.002917   0.000004  -0.000225   0.000762
   11  C  3  S    0.919669   0.191646  -0.000272   0.000796  -0.002568
   12  C  3  S    0.032648   0.006930   0.000091   0.000295  -0.007150
   13  C  3  X   -0.001943  -0.000504  -0.000024  -0.000063   0.000216
   14  C  3  Y   -0.000020  -0.000054   0.000076   0.000027   0.002786
   15  C  3  Z   -0.001097  -0.000128   0.000026  -0.000011   0.003706
   16  C  4  S    0.314333   0.060210   0.001348  -0.003259   0.000512
   17  C  4  S    0.008611   0.001623   0.000232  -0.007194   0.000038
   18  C  4  X    0.002953   0.000637   0.000037  -0.002094  -0.000020
   19  C  4  Y   -0.000147  -0.000052   0.000005   0.002803   0.000106
   20  C  4  Z    0.000744   0.000204   0.000061   0.002993   0.000124
   21  C  5  S    0.000765  -0.000593  -0.002720   0.991966   0.017126
   22  C  5  S   -0.002065  -0.000480  -0.000213   0.036580   0.000147
   23  C  5  X    0.000599   0.000097  -0.000030  -0.002383   0.000593
   24  C  5  Y   -0.000797  -0.000155  -0.000222   0.000616   0.000075
   25  C  5  Z   -0.000916  -0.000153   0.000029  -0.000811   0.000164
   26  C  6  S   -0.003421   0.027024   0.000634  -0.002283   0.000391
   27  C  6  S    0.000493  -0.001984   0.000394  -0.007128   0.000042
   28  C  6  X   -0.000426   0.002632   0.000091   0.000121   0.000054
   29  C  6  Y   -0.000111   0.000101   0.000112   0.001409   0.000022
   30  C  6  Z   -0.000227   0.000793  -0.000085  -0.004374  -0.000146
   31  C  7  S    0.000704   0.005544  -0.019608   0.001154  -0.000068
   32  C  7  S    0.000014   0.000180  -0.008948   0.000136   0.000008
   33  C  7  X    0.000036  -0.000025   0.000495  -0.000059  -0.000044
   34  C  7  Y    0.000003   0.000040  -0.003127   0.000003   0.000016
   35  C  7  Z   -0.000036  -0.000063  -0.003486  -0.000180   0.000013
   36  C  8  S   -0.000201   0.000256   0.991965   0.002811  -0.000032
   37  C  8  S    0.000063   0.000027   0.036555   0.000039  -0.000015
   38  C  8  X   -0.000030  -0.000024   0.000224  -0.000037  -0.000002
   39  C  8  Y    0.000015   0.000004  -0.001402   0.000189   0.000004
   40  C  8  Z    0.000014  -0.000007  -0.001290  -0.000063   0.000001
   41  C  9  S    0.001093   0.000195   0.001995   0.000354  -0.000008
   42  C  9  S   -0.001651  -0.000301  -0.005871   0.000110  -0.000015
   43  C  9  X    0.000219   0.000036  -0.001378  -0.000140  -0.000023
   44  C  9  Y    0.001254   0.000236  -0.001153   0.000052   0.000012
   45  C  9  Z   -0.000125  -0.000024   0.003783   0.000095  -0.000046
   46  O 10  S   -0.000014  -0.000002  -0.000022   0.000008  -0.000000
   47  O 10  S    0.000105   0.000017   0.000248  -0.000084   0.000007
   48  O 10  X   -0.000036  -0.000010   0.000072   0.000027   0.000007
   49  O 10  Y   -0.000088  -0.000014   0.000049   0.000034  -0.000004
   50  O 10  Z   -0.000007  -0.000001  -0.000206   0.000029  -0.000002
   51  H 11  S    0.001296  -0.006813  -0.000010  -0.000030   0.000098
   52  H 12  S    0.001385  -0.006824  -0.000093  -0.000065  -0.000011
   53  H 13  S    0.000034   0.000064  -0.000004   0.000130  -0.007015
   54  H 14  S   -0.006404  -0.001379  -0.000219  -0.000047  -0.000003
   55  H 15  S   -0.006353  -0.001437  -0.000019  -0.000042   0.000096
   56  H 16  S   -0.002060  -0.000413  -0.000098   0.000108  -0.000034
   57  H 17  S    0.000028   0.000006  -0.000042  -0.006928  -0.000106
   58  H 18  S   -0.000069  -0.000066  -0.000092   0.000097  -0.000047
   59  H 19  S   -0.000034   0.000003   0.000270  -0.000106  -0.000002
   60  H 20  S   -0.000024  -0.000008  -0.006866  -0.000079   0.000001

                     11         12         13         14         15
                   -1.3155    -1.0943    -1.0174    -0.9712    -0.9379
                     A          A          A          A          A   
    1  C  1  S   -0.000756  -0.059793  -0.097204   0.080179  -0.074555
    2  C  1  S    0.001831   0.158782   0.262363  -0.221583   0.213973
    3  C  1  X    0.000173   0.004003  -0.051958   0.031907   0.030493
    4  C  1  Y    0.000160   0.001741  -0.012842  -0.001355  -0.002873
    5  C  1  Z    0.000513   0.030051   0.057554  -0.021022  -0.012205
    6  C  2  S   -0.001090  -0.059954  -0.141189   0.073248   0.017155
    7  C  2  S    0.002398   0.149295   0.366194  -0.194309  -0.046120
    8  C  2  X    0.000641   0.030249   0.045519  -0.023825   0.025291
    9  C  2  Y    0.000634   0.019750   0.039994  -0.013009  -0.026824
   10  C  2  Z    0.000657   0.002182   0.011793   0.030347  -0.088038
   11  C  3  S   -0.003421  -0.054250  -0.113337   0.017269   0.095707
   12  C  3  S    0.008302   0.143964   0.306967  -0.043913  -0.271862
   13  C  3  X    0.002474   0.016236  -0.007801   0.032083  -0.002107
   14  C  3  Y    0.001463  -0.012818  -0.038823   0.018101  -0.003691
   15  C  3  Z    0.000516  -0.022278  -0.061395   0.046402  -0.003845
   16  C  4  S   -0.021302  -0.088122  -0.014265  -0.130114   0.075466
   17  C  4  S    0.053389   0.231618   0.041449   0.361140  -0.217561
   18  C  4  X    0.006458   0.023442  -0.031700   0.050344   0.019602
   19  C  4  Y    0.026140  -0.011812  -0.013774  -0.040793  -0.054152
   20  C  4  Z   -0.001499  -0.048799   0.001481  -0.032661  -0.017987
   21  C  5  S   -0.005510  -0.106522   0.005208  -0.125181  -0.055116
   22  C  5  S    0.012541   0.267441  -0.013591   0.334621   0.150098
   23  C  5  X   -0.002311  -0.031176  -0.017479  -0.043323   0.019796
   24  C  5  Y    0.004901   0.051136  -0.011193   0.040148  -0.019469
   25  C  5  Z    0.002162  -0.027983   0.017510   0.041296  -0.114746
   26  C  6  S   -0.003185  -0.112357   0.030824  -0.014429  -0.131476
   27  C  6  S    0.007596   0.296680  -0.082975   0.035691   0.373977
   28  C  6  X    0.000042  -0.002152  -0.036068   0.006801   0.004547
   29  C  6  Y    0.001775   0.027304  -0.045852  -0.063110  -0.028561
   30  C  6  Z    0.002251   0.048210  -0.004620   0.085835   0.012200
   31  C  7  S   -0.005954  -0.101256   0.101133   0.099185  -0.000321
   32  C  7  S    0.014149   0.257805  -0.266174  -0.267060   0.004662
   33  C  7  X   -0.001330  -0.019740   0.004779   0.007597  -0.005481
   34  C  7  Y    0.002974  -0.014119  -0.034557  -0.061225  -0.120861
   35  C  7  Z    0.005932   0.048623  -0.053228  -0.032536  -0.055662
   36  C  8  S   -0.021555  -0.079543   0.099515   0.095187   0.091781
   37  C  8  S    0.052420   0.199599  -0.258329  -0.252501  -0.248511
   38  C  8  X   -0.009110  -0.002762  -0.006073  -0.010409   0.011064
   39  C  8  Y   -0.008540  -0.055935   0.050558   0.030368   0.015650
   40  C  8  Z    0.024544  -0.026912   0.039797   0.064028  -0.020821
   41  C  9  S   -0.127527  -0.035239   0.023030  -0.013454   0.067227
   42  C  9  S    0.295208   0.097806  -0.066227   0.038147  -0.198396
   43  C  9  X   -0.016036   0.006058  -0.025924  -0.026222  -0.003940
   44  C  9  Y    0.097188  -0.059932  -0.004893  -0.092585   0.071502
   45  C  9  Z    0.118147  -0.067849   0.061363   0.039369   0.094075
   46  O 10  S   -0.214565   0.037889  -0.015667   0.010110  -0.047852
   47  O 10  S    0.749548  -0.141356   0.060116  -0.039623   0.191030
   48  O 10  X    0.015773  -0.001320  -0.005785  -0.006548   0.001193
   49  O 10  Y   -0.105206   0.003336  -0.006296  -0.021787   0.014729
   50  O 10  Z   -0.128126   0.005826   0.007234   0.012839   0.017912
   51  H 11  S    0.000194   0.030072   0.057132  -0.056171   0.068437
   52  H 12  S    0.000434   0.038724   0.056036  -0.065729   0.062398
   53  H 13  S    0.000317   0.029482   0.083915  -0.047173  -0.011491
   54  H 14  S    0.003555   0.033578   0.070855  -0.010568  -0.085023
   55  H 15  S    0.001358   0.026504   0.067949  -0.005373  -0.080715
   56  H 16  S    0.008757   0.040206   0.014604   0.093315  -0.063522
   57  H 17  S    0.001499   0.049774   0.001792   0.086019   0.045338
   58  H 18  S    0.000807   0.055401  -0.016424   0.003981   0.117757
   59  H 19  S    0.001597   0.048257  -0.060385  -0.074618   0.007668
   60  H 20  S    0.008698   0.034037  -0.057384  -0.068554  -0.068008

                     16         17         18         19         20
                   -0.8528    -0.7758    -0.7541    -0.7087    -0.6569
                     A          A          A          A          A   
    1  C  1  S   -0.130128   0.038300  -0.006707   0.067448   0.005554
    2  C  1  S    0.378996  -0.119078   0.025539  -0.216390  -0.016764
    3  C  1  X   -0.048285  -0.038219   0.059268  -0.050369   0.031819
    4  C  1  Y   -0.013496  -0.052816   0.023260  -0.091833  -0.129723
    5  C  1  Z   -0.032113   0.081904  -0.039646   0.161870  -0.073507
    6  C  2  S   -0.001249  -0.060881   0.046740  -0.113923  -0.006810
    7  C  2  S    0.003527   0.181729  -0.141510   0.352220   0.024248
    8  C  2  X    0.052442  -0.009134  -0.000399  -0.016303  -0.040554
    9  C  2  Y   -0.042461  -0.037084   0.050807  -0.140614  -0.135774
   10  C  2  Z   -0.176294   0.026729   0.014163   0.029083   0.024529
   11  C  3  S    0.129193   0.014832  -0.038389   0.066097   0.002731
   12  C  3  S   -0.376308  -0.050292   0.118690  -0.212443  -0.007780
   13  C  3  X    0.055602  -0.026729  -0.016595   0.024535  -0.034454
   14  C  3  Y    0.003752  -0.069466   0.086178  -0.149538  -0.072584
   15  C  3  Z   -0.006118  -0.069091   0.028936  -0.108718   0.115870
   16  C  4  S   -0.062798   0.079640   0.045082  -0.015121  -0.028327
   17  C  4  S    0.182730  -0.247581  -0.133444   0.048711   0.097464
   18  C  4  X    0.062749   0.036560  -0.035172   0.042773  -0.051378
   19  C  4  Y    0.037240  -0.091242   0.185228   0.122104  -0.024623
   20  C  4  Z    0.013386  -0.110318  -0.028039   0.016127   0.219903
   21  C  5  S    0.006467  -0.098100   0.054278   0.048529   0.027106
   22  C  5  S   -0.018632   0.291435  -0.164904  -0.148963  -0.082674
   23  C  5  X   -0.024694   0.011446   0.043593   0.030378   0.039589
   24  C  5  Y    0.022745  -0.074424   0.037852   0.094927  -0.149588
   25  C  5  Z    0.088365  -0.062534  -0.158278  -0.034816   0.024161
   26  C  6  S    0.072488   0.009500  -0.083708  -0.031680  -0.033424
   27  C  6  S   -0.211203  -0.034352   0.259025   0.099262   0.112005
   28  C  6  X   -0.066822  -0.008345   0.019368   0.060735   0.092052
   29  C  6  Y   -0.018946  -0.127574  -0.055051   0.069085  -0.181047
   30  C  6  Z   -0.002118   0.152074  -0.034080  -0.024336  -0.210108
   31  C  7  S    0.055341   0.076690   0.085747  -0.021690   0.025875
   32  C  7  S   -0.161050  -0.233631  -0.254361   0.069415  -0.079224
   33  C  7  X   -0.013303  -0.000962  -0.043537   0.012315   0.072381
   34  C  7  Y    0.059136   0.083666  -0.148924  -0.110118   0.032910
   35  C  7  Z    0.036355   0.112848   0.051470  -0.007943  -0.140962
   36  C  8  S   -0.038561  -0.086304  -0.005598   0.042311  -0.032392
   37  C  8  S    0.111439   0.256098   0.028469  -0.127781   0.113665
   38  C  8  X   -0.021563  -0.000290  -0.074588  -0.015408   0.045117
   39  C  8  Y    0.012203   0.078710   0.007516  -0.099053   0.212856
   40  C  8  Z    0.072873   0.077320   0.226791   0.055963   0.035698
   41  C  9  S   -0.065261   0.002655  -0.105854  -0.054141  -0.013873
   42  C  9  S    0.199471  -0.008868   0.338978   0.176482   0.044220
   43  C  9  X    0.020331   0.079575   0.011210   0.004333   0.012352
   44  C  9  Y   -0.066214   0.156562  -0.012212  -0.103945   0.042591
   45  C  9  Z   -0.066202  -0.118116  -0.132207   0.015808   0.038424
   46  O 10  S    0.037838  -0.003274   0.058202   0.024419   0.028801
   47  O 10  S   -0.157353   0.014497  -0.255831  -0.109868  -0.137699
   48  O 10  X    0.009571   0.039028   0.011127   0.005334   0.019288
   49  O 10  Y   -0.026499   0.081626  -0.040776  -0.082492  -0.047557
   50  O 10  Z   -0.028005  -0.055818  -0.111139  -0.014534  -0.066428
   51  H 11  S    0.141845  -0.057291   0.018799  -0.120708   0.100733
   52  H 12  S    0.120694  -0.096643   0.026140  -0.177680  -0.081199
   53  H 13  S    0.001052   0.092547  -0.082332   0.232623   0.113172
   54  H 14  S   -0.117783  -0.053223   0.103414  -0.168119  -0.070797
   55  H 15  S   -0.140828  -0.033673   0.046983  -0.121409   0.095294
   56  H 16  S    0.055507  -0.135691  -0.101651  -0.001633   0.195211
   57  H 17  S   -0.009158   0.145639  -0.103342  -0.121311   0.072765
   58  H 18  S   -0.078007  -0.030858   0.137710   0.037893   0.258228
   59  H 19  S   -0.065389  -0.135381  -0.160712   0.015184   0.077885
   60  H 20  S    0.036217   0.135705  -0.013975  -0.121236   0.192895

                     21         22         23         24         25
                   -0.6044    -0.5931    -0.5874    -0.5544    -0.5396
                     A          A          A          A          A   
    1  C  1  S   -0.014342  -0.009300   0.000335   0.000461   0.005143
    2  C  1  S    0.051355   0.027020   0.003415  -0.001117  -0.025366
    3  C  1  X    0.045679  -0.051536   0.062708  -0.011923  -0.086432
    4  C  1  Y   -0.184269  -0.098299   0.121015   0.250525  -0.210450
    5  C  1  Z   -0.186852  -0.132481  -0.117093  -0.000096   0.100207
    6  C  2  S    0.025567   0.007275   0.006312  -0.015832  -0.008135
    7  C  2  S   -0.079320  -0.020368  -0.019566   0.052398   0.026685
    8  C  2  X   -0.075738  -0.087288  -0.063580  -0.052808   0.053109
    9  C  2  Y   -0.215963  -0.099380  -0.024460   0.105520  -0.010156
   10  C  2  Z    0.021170  -0.035531   0.134905   0.081527  -0.179607
   11  C  3  S   -0.012194  -0.010652  -0.006177   0.004929   0.001786
   12  C  3  S    0.044386   0.034176   0.017654  -0.026097  -0.001952
   13  C  3  X   -0.090500  -0.101458  -0.062782  -0.075980   0.062496
   14  C  3  Y   -0.078305   0.068259  -0.189046  -0.140360   0.267253
   15  C  3  Z    0.258543   0.096599   0.049775  -0.056072  -0.053346
   16  C  4  S   -0.003292   0.055948  -0.007928   0.020212  -0.010097
   17  C  4  S    0.008550  -0.189972   0.022711  -0.070437   0.034366
   18  C  4  X   -0.009336   0.057402   0.065677  -0.006609  -0.022810
   19  C  4  Y   -0.013726   0.119515  -0.214018  -0.004293  -0.125500
   20  C  4  Z    0.001970  -0.074613  -0.081101   0.274769   0.076839
   21  C  5  S    0.011585  -0.056423  -0.003907   0.010005   0.017204
   22  C  5  S   -0.041121   0.192159   0.011966  -0.028355  -0.056212
   23  C  5  X   -0.005655   0.089813  -0.068841   0.123983   0.011793
   24  C  5  Y    0.109687  -0.201927   0.076300  -0.252058  -0.114806
   25  C  5  Z   -0.054391   0.023802   0.200004   0.020927   0.164112
   26  C  6  S   -0.009898   0.054736   0.011213  -0.001549   0.007198
   27  C  6  S    0.032799  -0.191857  -0.034547   0.007341  -0.021438
   28  C  6  X   -0.021447   0.036803  -0.014533   0.061236   0.091150
   29  C  6  Y    0.036408  -0.005304   0.207471  -0.004985   0.041706
   30  C  6  Z    0.086928   0.054209  -0.105991  -0.074194  -0.183514
   31  C  7  S    0.003688  -0.045458  -0.009938  -0.006529  -0.018366
   32  C  7  S   -0.024346   0.151366   0.052170   0.011449   0.061753
   33  C  7  X   -0.058846   0.066248  -0.018901  -0.083668  -0.009447
   34  C  7  Y    0.006898   0.061941  -0.217464   0.004725  -0.086576
   35  C  7  Z    0.266531  -0.122813  -0.142236   0.267372   0.073649
   36  C  8  S   -0.020898   0.045759   0.022472  -0.020217  -0.004384
   37  C  8  S    0.055371  -0.151599  -0.062460   0.058481   0.013165
   38  C  8  X    0.013865  -0.034721  -0.069137  -0.017096  -0.069595
   39  C  8  Y   -0.157358  -0.174179   0.020288  -0.234447  -0.184412
   40  C  8  Z   -0.077879   0.036220   0.241729  -0.048077   0.110373
   41  C  9  S    0.042812  -0.080180  -0.012343  -0.009092   0.022760
   42  C  9  S   -0.146957   0.279839   0.039798   0.029267  -0.077334
   43  C  9  X    0.018008  -0.015877   0.150738   0.057105   0.036408
   44  C  9  Y   -0.058865  -0.008070   0.220444  -0.003481   0.095609
   45  C  9  Z   -0.032114   0.042936  -0.166636   0.040756  -0.232837
   46  O 10  S   -0.041043   0.049812   0.005355   0.009103  -0.034295
   47  O 10  S    0.202034  -0.245430  -0.026162  -0.046549   0.178369
   48  O 10  X   -0.016576   0.006742   0.133468   0.030301   0.008840
   49  O 10  Y    0.082185  -0.178322   0.194749  -0.093679   0.301072
   50  O 10  Z    0.155660  -0.161095  -0.180114   0.014296   0.026604
   51  H 11  S    0.228568   0.143398   0.000698  -0.148350   0.056407
   52  H 12  S   -0.071946  -0.018387   0.130204   0.198067  -0.208061
   53  H 13  S    0.140127   0.081061   0.039011  -0.035049  -0.012458
   54  H 14  S   -0.077751   0.066904  -0.151178  -0.117916   0.235408
   55  H 15  S    0.238595   0.098299   0.109430   0.022763  -0.131345
   56  H 16  S    0.019388  -0.176612  -0.001072   0.190847   0.112316
   57  H 17  S   -0.107583   0.259207  -0.024435   0.208447   0.101277
   58  H 18  S   -0.051623  -0.096161  -0.063737   0.063453   0.112441
   59  H 19  S   -0.212460   0.194903   0.074858  -0.223250  -0.051564
   60  H 20  S   -0.075950  -0.217899  -0.049123  -0.160317  -0.169692

                     26         27         28         29         30
                   -0.5170    -0.5079    -0.4880    -0.4776    -0.4470
                     A          A          A          A          A   
    1  C  1  S    0.009318   0.009040   0.008104  -0.029636  -0.009781
    2  C  1  S   -0.036824  -0.019979  -0.031985   0.103538   0.036555
    3  C  1  X   -0.035574   0.225417  -0.060423  -0.093059  -0.016982
    4  C  1  Y    0.067661  -0.007896   0.253382  -0.006265   0.034397
    5  C  1  Z   -0.205664  -0.048367   0.066426   0.268674   0.217864
    6  C  2  S   -0.013600   0.015961  -0.008842   0.005981   0.003191
    7  C  2  S    0.048239  -0.057043   0.037326  -0.026278  -0.011719
    8  C  2  X   -0.153427   0.094149  -0.099717   0.184955   0.086359
    9  C  2  Y    0.080301  -0.056977  -0.257465   0.129936  -0.055797
   10  C  2  Z    0.133101   0.221426  -0.140618  -0.187825  -0.181634
   11  C  3  S   -0.009418  -0.000533   0.032607  -0.001514   0.005691
   12  C  3  S    0.023555   0.009706  -0.113518   0.009960  -0.018343
   13  C  3  X   -0.093207   0.199639  -0.035097  -0.030323  -0.052650
   14  C  3  Y   -0.024332  -0.166458   0.159659  -0.183244   0.037279
   15  C  3  Z   -0.179160  -0.058528   0.197282   0.246499   0.207019
   16  C  4  S   -0.009651  -0.008690   0.001912   0.001195  -0.000426
   17  C  4  S    0.027094   0.042907  -0.006914   0.002778  -0.006566
   18  C  4  X    0.210889  -0.184756  -0.036149  -0.040291   0.122840
   19  C  4  Y    0.118671   0.055885   0.126645   0.093698  -0.077952
   20  C  4  Z   -0.144652  -0.153606   0.045142   0.013488  -0.281251
   21  C  5  S   -0.010418   0.020069  -0.006979   0.006903   0.001640
   22  C  5  S    0.038541  -0.070444   0.027087  -0.024170  -0.005107
   23  C  5  X    0.095884  -0.174780   0.062708   0.008010  -0.115882
   24  C  5  Y    0.055949  -0.166058  -0.091852  -0.031983   0.015268
   25  C  5  Z    0.135215   0.025936  -0.051267  -0.116279   0.340789
   26  C  6  S    0.019106   0.011953  -0.005474   0.010886   0.004893
   27  C  6  S   -0.074945  -0.033728   0.016982  -0.042293  -0.006417
   28  C  6  X    0.175331  -0.180346   0.002273  -0.019427  -0.002717
   29  C  6  Y   -0.124739  -0.133503   0.096505  -0.166388   0.040394
   30  C  6  Z   -0.147713  -0.162880   0.046146   0.055304  -0.336489
   31  C  7  S    0.021615   0.001880   0.011261   0.004075   0.002232
   32  C  7  S   -0.078970  -0.013354  -0.026635  -0.016029  -0.015120
   33  C  7  X    0.107494  -0.134593  -0.085665   0.117359  -0.081086
   34  C  7  Y    0.051924   0.151924  -0.114851   0.121999  -0.027219
   35  C  7  Z   -0.042934  -0.044167  -0.115645  -0.127480   0.123959
   36  C  8  S   -0.009484  -0.005617  -0.001263   0.004310  -0.011396
   37  C  8  S    0.035754   0.014571   0.016034  -0.015935   0.039805
   38  C  8  X    0.072903  -0.176624  -0.115257   0.019222   0.028399
   39  C  8  Y   -0.003370  -0.106781   0.147268  -0.103270   0.012012
   40  C  8  Z    0.042821  -0.051009   0.072804   0.118593  -0.122606
   41  C  9  S    0.007871  -0.011113   0.009334  -0.015196  -0.000791
   42  C  9  S   -0.020153   0.045285  -0.028124   0.061112   0.000912
   43  C  9  X    0.125194  -0.221323  -0.169779   0.147996  -0.006096
   44  C  9  Y   -0.277810  -0.036561  -0.113684  -0.106386  -0.028718
   45  C  9  Z   -0.104569  -0.152310  -0.164615  -0.161550   0.163705
   46  O 10  S   -0.051711  -0.017246  -0.031196  -0.026262   0.013447
   47  O 10  S    0.276048   0.093060   0.171578   0.146763  -0.078006
   48  O 10  X    0.034156  -0.201635  -0.203527   0.108111  -0.008312
   49  O 10  Y    0.117625   0.097599   0.155832   0.191653  -0.268758
   50  O 10  Z    0.368964   0.044543   0.198938   0.152991   0.007476
   51  H 11  S    0.085355   0.033302  -0.240192  -0.138435  -0.170249
   52  H 12  S    0.096900   0.005502   0.214798  -0.053653  -0.021209
   53  H 13  S    0.009414   0.031958   0.264850  -0.215006  -0.003405
   54  H 14  S    0.014244  -0.118813   0.095342  -0.227870  -0.010450
   55  H 15  S   -0.082197  -0.092488   0.073493   0.275951   0.179042
   56  H 16  S   -0.163335  -0.119264   0.008731  -0.003914  -0.260563
   57  H 17  S    0.005218   0.104258   0.100160  -0.008283   0.046501
   58  H 18  S    0.201836   0.092818  -0.084742   0.027351   0.202991
   59  H 19  S    0.044964   0.033354   0.029189   0.181774  -0.168511
   60  H 20  S    0.026991  -0.118654   0.113320  -0.116699   0.056125

                     31         32         33         34         35
                   -0.4434    -0.4185    -0.3647    -0.3155    -0.2824
                     A          A          A          A          A   
    1  C  1  S   -0.008528   0.002737  -0.002588  -0.000069  -0.027065
    2  C  1  S    0.036444   0.004707  -0.005951   0.000917   0.128639
    3  C  1  X    0.063747   0.258570  -0.125640   0.004168   0.329259
    4  C  1  Y   -0.202764   0.055995   0.109781  -0.031185   0.012093
    5  C  1  Z    0.031851   0.049146  -0.096472   0.017690   0.135198
    6  C  2  S    0.003258   0.020123   0.012902  -0.004043   0.006617
    7  C  2  S   -0.017020  -0.071301  -0.049083   0.013479  -0.027405
    8  C  2  X    0.109635   0.061036   0.106784   0.011870   0.061114
    9  C  2  Y    0.131727  -0.216934  -0.105507   0.020772  -0.032745
   10  C  2  Z    0.055052   0.081761   0.007439   0.001523   0.100414
   11  C  3  S   -0.016421  -0.003709  -0.013769  -0.002325   0.012556
   12  C  3  S    0.058401   0.014476   0.076267   0.010720  -0.070017
   13  C  3  X    0.013919   0.087062   0.363575  -0.000319  -0.221549
   14  C  3  Y   -0.122957   0.185390  -0.039947  -0.032192   0.048007
   15  C  3  Z   -0.053491   0.001402   0.090038   0.005805  -0.045623
   16  C  4  S    0.025356   0.008798  -0.017283  -0.030996   0.008919
   17  C  4  S   -0.092518  -0.029834   0.092267   0.141383  -0.051208
   18  C  4  X   -0.029578  -0.035711  -0.321426   0.073382   0.248453
   19  C  4  Y    0.130864   0.019823   0.046970   0.326255   0.067824
   20  C  4  Z    0.055014   0.034473  -0.150931  -0.026203   0.095574
   21  C  5  S    0.005244   0.016576   0.012164   0.006351   0.003719
   22  C  5  S   -0.011121  -0.061849  -0.043276  -0.019895  -0.011216
   23  C  5  X    0.052044  -0.119587  -0.024364   0.137408   0.009629
   24  C  5  Y   -0.222380  -0.097809  -0.091627  -0.068878   0.000989
   25  C  5  Z    0.046365  -0.057991  -0.022618   0.023581   0.079046
   26  C  6  S   -0.003087  -0.007895   0.018742  -0.001576  -0.005783
   27  C  6  S    0.022576   0.042334  -0.082601   0.009816   0.047568
   28  C  6  X   -0.072531  -0.263109   0.243353   0.012490  -0.247188
   29  C  6  Y    0.332305  -0.030772   0.075394   0.082868  -0.012071
   30  C  6  Z   -0.021502  -0.019392   0.005253  -0.050767  -0.055411
   31  C  7  S   -0.011242   0.004107  -0.010049  -0.011982   0.005122
   32  C  7  S    0.058253  -0.013299   0.039799   0.043419  -0.020653
   33  C  7  X   -0.053039  -0.016689   0.354385  -0.171457   0.358274
   34  C  7  Y   -0.328676   0.045495  -0.141777   0.006950  -0.006271
   35  C  7  Z   -0.021906  -0.033130   0.160634   0.047478   0.103428
   36  C  8  S   -0.004210  -0.000249   0.005899   0.036784   0.007050
   37  C  8  S    0.033598   0.000512  -0.024561  -0.164187  -0.034035
   38  C  8  X    0.017259   0.090619   0.362674  -0.027662   0.418544
   39  C  8  Y    0.176949  -0.038319  -0.031561   0.130729  -0.067682
   40  C  8  Z    0.118627   0.045977   0.061942  -0.304500   0.070666
   41  C  9  S   -0.003416  -0.002244   0.008101   0.000924  -0.008857
   42  C  9  S    0.014516   0.011812  -0.029901  -0.001870   0.037466
   43  C  9  X    0.017460   0.412180  -0.009050  -0.018621  -0.155364
   44  C  9  Y   -0.174583  -0.093792   0.009463  -0.152537  -0.030886
   45  C  9  Z    0.006210   0.086969   0.040690   0.122475  -0.037870
   46  O 10  S   -0.011981  -0.002950   0.001019  -0.000346   0.000145
   47  O 10  S    0.070126   0.017802  -0.008534   0.001786   0.001871
   48  O 10  X   -0.054474   0.457255   0.035635   0.330818  -0.324099
   49  O 10  Y   -0.136385  -0.059423   0.053794   0.563427   0.202584
   50  O 10  Z    0.296540   0.162553  -0.079516  -0.419526  -0.174743
   51  H 11  S    0.138068  -0.084678  -0.003622   0.013355  -0.075771
   52  H 12  S   -0.194802   0.047813   0.132762  -0.032529  -0.025232
   53  H 13  S   -0.164198   0.189571   0.063709  -0.023047   0.028255
   54  H 14  S   -0.094641   0.175735  -0.049647  -0.048368   0.062112
   55  H 15  S    0.016337  -0.094157  -0.079801   0.020313   0.044746
   56  H 16  S   -0.032461   0.015232  -0.118627  -0.109623   0.033554
   57  H 17  S    0.242396   0.044806   0.078776   0.112478   0.018991
   58  H 18  S   -0.221821  -0.075061   0.019729  -0.008981  -0.083335
   59  H 19  S   -0.069747   0.032964  -0.066828  -0.115216   0.004252
   60  H 20  S    0.189540  -0.025419   0.040844   0.120352   0.004817

                     36         37         38         39         40
                   -0.2114     0.1941     0.2213     0.3783     0.3917
                     A          A          A          A          A   
    1  C  1  S   -0.028069  -0.011024  -0.038343   0.030041  -0.039699
    2  C  1  S    0.104038   0.079977   0.188909  -0.130638   0.202121
    3  C  1  X    0.190766   0.234729   0.293097  -0.335059   0.415432
    4  C  1  Y   -0.005060   0.002624   0.008397   0.090821   0.002863
    5  C  1  Z    0.092808   0.035739   0.108834  -0.196508   0.112503
    6  C  2  S    0.024990  -0.022922  -0.003032  -0.002489  -0.005650
    7  C  2  S   -0.120325   0.127066   0.017337   0.018532   0.043495
    8  C  2  X    0.495845  -0.517209  -0.087700  -0.097855  -0.235055
    9  C  2  Y   -0.190762   0.153406   0.033839   0.024575   0.075111
   10  C  2  Z    0.189658  -0.199679   0.020700  -0.054478  -0.087900
   11  C  3  S   -0.030849  -0.017660   0.032974  -0.051031  -0.008999
   12  C  3  S    0.117089   0.112563  -0.154928   0.244587   0.059396
   13  C  3  X    0.242197   0.266484  -0.222800   0.556885   0.051762
   14  C  3  Y   -0.029789   0.010420   0.013425  -0.100761   0.085746
   15  C  3  Z    0.048718   0.111422  -0.039004   0.153204   0.050801
   16  C  4  S    0.033835  -0.014871  -0.015675   0.053208  -0.023186
   17  C  4  S   -0.134187   0.094768   0.061120  -0.256028   0.134088
   18  C  4  X    0.203572  -0.266960  -0.149771   0.519474  -0.099287
   19  C  4  Y   -0.023804   0.028746  -0.001647   0.035177  -0.052026
   20  C  4  Z    0.093572  -0.052429  -0.055557   0.197556  -0.043732
   21  C  5  S   -0.024937  -0.022704  -0.002364   0.007311   0.020400
   22  C  5  S    0.119016   0.126020   0.011695  -0.040774  -0.112294
   23  C  5  X    0.525018   0.594326   0.041065  -0.054482  -0.084058
   24  C  5  Y    0.169867   0.138359   0.023066  -0.017082  -0.068810
   25  C  5  Z    0.121601   0.146552   0.075462   0.058358  -0.058162
   26  C  6  S    0.030973  -0.016833   0.010645  -0.056178   0.020830
   27  C  6  S   -0.123070   0.102666  -0.029620   0.287170  -0.087816
   28  C  6  X    0.244141  -0.266987   0.109977  -0.469473   0.310799
   29  C  6  Y    0.000528   0.007018   0.013492  -0.064416   0.004114
   30  C  6  Z    0.053479  -0.122509   0.017882  -0.090355   0.074730
   31  C  7  S    0.009331   0.017700   0.004961   0.000456  -0.000824
   32  C  7  S   -0.038583  -0.084960  -0.022771  -0.003605   0.007022
   33  C  7  X   -0.049273  -0.090561   0.523813   0.433532   0.300991
   34  C  7  Y    0.059501   0.123669  -0.055336  -0.066277  -0.047386
   35  C  7  Z   -0.030634  -0.042781   0.148405   0.123352   0.078030
   36  C  8  S   -0.004574  -0.008418  -0.001049  -0.002257  -0.002056
   37  C  8  S    0.020411   0.037503   0.004843   0.013243   0.011620
   38  C  8  X   -0.147339   0.180547  -0.361969  -0.332180  -0.506431
   39  C  8  Y    0.010210  -0.046105   0.070012   0.066905   0.100080
   40  C  8  Z   -0.011961   0.074807  -0.115361  -0.107858  -0.154619
   41  C  9  S    0.009393   0.019904  -0.001429  -0.001271   0.000227
   42  C  9  S   -0.040013  -0.095789   0.005358   0.009847  -0.000489
   43  C  9  X    0.017602   0.010289  -0.445988  -0.015092   0.609418
   44  C  9  Y    0.067079   0.124497   0.087218   0.012355  -0.122563
   45  C  9  Z   -0.014660  -0.034178  -0.137403   0.001253   0.178442
   46  O 10  S   -0.000156  -0.002396  -0.000374   0.001606  -0.000477
   47  O 10  S   -0.001115   0.010687   0.002603  -0.010826   0.002583
   48  O 10  X   -0.045576   0.004386   0.517875   0.010283  -0.434853
   49  O 10  Y   -0.071093  -0.073081  -0.105458   0.010168   0.083786
   50  O 10  Z    0.034255   0.025901   0.149258   0.015391  -0.127995
   51  H 11  S   -0.002692  -0.057164  -0.044854  -0.017264  -0.035023
   52  H 12  S    0.077207  -0.150063  -0.028987  -0.083538  -0.045199
   53  H 13  S    0.052563  -0.020218  -0.000703  -0.000233   0.013965
   54  H 14  S    0.070326  -0.142219  -0.009651   0.020683  -0.080129
   55  H 15  S   -0.001658  -0.074821   0.025009  -0.009860  -0.038245
   56  H 16  S    0.008041  -0.066709   0.021735  -0.007633  -0.093507
   57  H 17  S   -0.063386  -0.024059  -0.002772   0.003114   0.033347
   58  H 18  S    0.000887  -0.072424  -0.058848  -0.073163  -0.076620
   59  H 19  S    0.024629   0.034395   0.000908   0.003175  -0.017918
   60  H 20  S   -0.025949  -0.047886  -0.013312  -0.017670  -0.011206

                     41         42         43         44         45
                    0.5297     0.5709     0.5867     0.6195     0.6258
                     A          A          A          A          A   
    1  C  1  S   -0.013690  -0.023575   0.000825  -0.006206   0.036299
    2  C  1  S    0.054118   0.152623  -0.004502   0.041858  -0.227770
    3  C  1  X    0.486834  -0.057031  -0.001229  -0.045759  -0.013318
    4  C  1  Y   -0.001764  -0.242234   0.216487   0.077571   0.384103
    5  C  1  Z    0.125171  -0.098768  -0.017273   0.022616   0.100302
    6  C  2  S   -0.034026  -0.020573   0.011702   0.002629   0.045140
    7  C  2  S    0.212433   0.127690  -0.073543  -0.018888  -0.285749
    8  C  2  X   -0.313113  -0.071080   0.062321  -0.035633   0.192526
    9  C  2  Y    0.148621  -0.240442   0.160147  -0.000127   0.451590
   10  C  2  Z   -0.122573   0.035363  -0.025075   0.027172  -0.055116
   11  C  3  S   -0.014431  -0.012457   0.023733   0.027330   0.030289
   12  C  3  S    0.057844   0.081323  -0.152144  -0.170224  -0.189524
   13  C  3  X    0.481190  -0.103479   0.107438   0.040759   0.093306
   14  C  3  Y   -0.003801  -0.236551   0.071184  -0.149449   0.320773
   15  C  3  Z    0.185761   0.137762  -0.095270   0.018370  -0.241831
   16  C  4  S    0.046078   0.000971   0.048444   0.106420  -0.009766
   17  C  4  S   -0.242617   0.016752  -0.294640  -0.623063   0.071376
   18  C  4  X    0.499943  -0.086938   0.007229  -0.246315  -0.095706
   19  C  4  Y   -0.107721  -0.380046  -0.025222  -0.517819  -0.197975
   20  C  4  Z    0.132612   0.191988  -0.176324  -0.071759   0.127687
   21  C  5  S    0.010921  -0.045113   0.018492   0.004064  -0.051719
   22  C  5  S   -0.081762   0.282170  -0.118668  -0.028288   0.325455
   23  C  5  X   -0.352814   0.066655  -0.067639   0.103195   0.099090
   24  C  5  Y   -0.123054  -0.318679   0.152544   0.007418  -0.304007
   25  C  5  Z   -0.060879   0.057499  -0.082460   0.170557   0.064678
   26  C  6  S    0.042589  -0.052124  -0.066794  -0.013311   0.007584
   27  C  6  S   -0.223902   0.328916   0.386623   0.074671  -0.030691
   28  C  6  X    0.472067   0.143206   0.160657  -0.102820  -0.035300
   29  C  6  Y   -0.061293  -0.240158   0.453553   0.139680  -0.330170
   30  C  6  Z    0.231717  -0.205314  -0.114378   0.162088  -0.099713
   31  C  7  S   -0.018252  -0.050755   0.024432   0.054546  -0.052285
   32  C  7  S    0.105000   0.307927  -0.132470  -0.363032   0.313329
   33  C  7  X   -0.284665   0.048193   0.131471  -0.044400  -0.007301
   34  C  7  Y   -0.037433   0.027987   0.501671   0.010637  -0.191332
   35  C  7  Z   -0.056336  -0.273711  -0.320690   0.267929  -0.076806
   36  C  8  S    0.015556   0.013116   0.024467   0.107470   0.001481
   37  C  8  S   -0.091059  -0.055311  -0.126814  -0.662207  -0.003156
   38  C  8  X    0.239783   0.109422   0.220894  -0.023810  -0.034901
   39  C  8  Y   -0.067760   0.132765   0.342221  -0.316781  -0.059183
   40  C  8  Z    0.077433  -0.191473  -0.431430  -0.249840   0.051741
   41  C  9  S   -0.020653  -0.091776  -0.093770  -0.123879  -0.019411
   42  C  9  S    0.118877   0.540285   0.553753   0.727459   0.112005
   43  C  9  X   -0.303697  -0.020416   0.125823   0.028248  -0.059113
   44  C  9  Y   -0.031201  -0.142830   0.131754  -0.444182  -0.144024
   45  C  9  Z   -0.061604  -0.046824  -0.333679  -0.137879   0.083572
   46  O 10  S    0.003506   0.018709   0.014192   0.006533   0.003863
   47  O 10  S   -0.021096  -0.116921  -0.084839  -0.025382  -0.025090
   48  O 10  X    0.156627  -0.001494  -0.046868  -0.009336   0.012770
   49  O 10  Y    0.011185   0.127827   0.002192   0.093241   0.062678
   50  O 10  Z    0.051533   0.117719   0.154540  -0.020627  -0.001612
   51  H 11  S    0.075110  -0.318520   0.158372   0.045316   0.459478
   52  H 12  S    0.000282   0.133349  -0.222897  -0.089739  -0.241496
   53  H 13  S   -0.044218  -0.348179   0.224878  -0.008813   0.658633
   54  H 14  S   -0.008917   0.229098  -0.026031   0.225587  -0.287446
   55  H 15  S    0.070612  -0.286657   0.231560   0.030474   0.443458
   56  H 16  S    0.005871  -0.319482   0.335908   0.217346  -0.236610
   57  H 17  S   -0.040961  -0.514855   0.258477  -0.047158  -0.510995
   58  H 18  S    0.030540  -0.527776  -0.085618   0.194850  -0.235385
   59  H 19  S   -0.012208  -0.461563  -0.417989   0.427629  -0.171484
   60  H 20  S    0.089848  -0.137208  -0.388826   0.657601   0.088403

                     46         47         48         49         50
                    0.6607     0.6978     0.7140     0.7291     0.7432
                     A          A          A          A          A   
    1  C  1  S    0.026938  -0.102925  -0.055728   0.120624  -0.070399
    2  C  1  S   -0.166458   0.655563   0.347002  -0.770589   0.444527
    3  C  1  X    0.078957  -0.038926  -0.149235   0.130476   0.066612
    4  C  1  Y   -0.277444  -0.068164   0.147932  -0.528206   0.095806
    5  C  1  Z   -0.083629  -0.461570   0.173607   0.011677  -0.340015
    6  C  2  S   -0.008924   0.053940   0.077828  -0.012903  -0.012342
    7  C  2  S    0.052134  -0.328283  -0.483332   0.080657   0.104608
    8  C  2  X   -0.006009   0.086592  -0.020849   0.103145   0.065968
    9  C  2  Y   -0.073950   0.002077   0.046743  -0.073738  -0.047177
   10  C  2  Z   -0.138346  -0.122676   0.086992  -0.314856  -0.001162
   11  C  3  S    0.002519  -0.062553  -0.127669  -0.091685  -0.073074
   12  C  3  S   -0.018290   0.388043   0.815548   0.589370   0.461087
   13  C  3  X    0.092638  -0.006121  -0.304434  -0.001115  -0.069690
   14  C  3  Y    0.056038   0.168619   0.124545   0.459763   0.290431
   15  C  3  Z   -0.234129  -0.254650   0.296465  -0.284519   0.129689
   16  C  4  S    0.017255  -0.015893  -0.057364   0.025053   0.126614
   17  C  4  S   -0.116765   0.100146   0.372785  -0.139436  -0.789472
   18  C  4  X    0.129101   0.164541   0.142877  -0.049403  -0.153142
   19  C  4  Y    0.111039  -0.080842  -0.060295  -0.108859   0.153858
   20  C  4  Z   -0.542828  -0.163619   0.127135   0.209065   0.016743
   21  C  5  S    0.005897   0.044712   0.067054  -0.000150  -0.145018
   22  C  5  S   -0.043484  -0.279422  -0.433272   0.003957   0.923184
   23  C  5  X    0.156071  -0.017425   0.033365  -0.041781  -0.161883
   24  C  5  Y    0.020483  -0.098961   0.000325  -0.007069   0.055420
   25  C  5  Z   -0.283938  -0.070284   0.028418   0.194578  -0.022211
   26  C  6  S    0.070782  -0.090737   0.009012  -0.044847   0.116224
   27  C  6  S   -0.419001   0.573757  -0.049627   0.262865  -0.728650
   28  C  6  X   -0.104382   0.329435  -0.063501  -0.062626  -0.121559
   29  C  6  Y   -0.417100  -0.074994  -0.121328   0.183244   0.242398
   30  C  6  Z   -0.211149  -0.242714   0.294550   0.115483  -0.060033
   31  C  7  S   -0.111343   0.088473  -0.075171   0.042368  -0.027495
   32  C  7  S    0.682946  -0.576862   0.474910  -0.257758   0.168268
   33  C  7  X    0.055563  -0.127217  -0.034455   0.058965   0.038263
   34  C  7  Y   -0.243423   0.039615   0.078256   0.126571  -0.097523
   35  C  7  Z   -0.114707   0.066464   0.042899   0.111150  -0.146924
   36  C  8  S    0.091531  -0.030933   0.108515   0.006098  -0.032931
   37  C  8  S   -0.552605   0.181329  -0.696678  -0.043439   0.220943
   38  C  8  X   -0.025204   0.020861   0.041658   0.021950  -0.033298
   39  C  8  Y   -0.133429  -0.250026   0.011650   0.081330   0.052554
   40  C  8  Z   -0.111108  -0.027304  -0.072445  -0.092260   0.051497
   41  C  9  S    0.002516   0.035221  -0.037001  -0.046854  -0.023041
   42  C  9  S   -0.027573  -0.224697   0.220162   0.283337   0.136877
   43  C  9  X    0.130357  -0.085618   0.060837  -0.050952  -0.083166
   44  C  9  Y    0.100255  -0.108744   0.286338  -0.037284  -0.206846
   45  C  9  Z   -0.316494  -0.056806  -0.317806  -0.026328   0.180041
   46  O 10  S   -0.017169  -0.021041   0.005269   0.010528   0.008715
   47  O 10  S    0.122560   0.143932  -0.033194  -0.070495  -0.059244
   48  O 10  X   -0.025610   0.049231  -0.017254   0.004131   0.012609
[...]
   29  C  6  Y    0.208960   0.151592  -0.103277  -0.578900  -0.003007
   30  C  6  Z    0.057230   0.009190   0.225460  -0.071558   0.077781
   31  C  7  S    0.036803   0.026179   0.025553  -0.082055   0.016135
   32  C  7  S   -0.215790  -0.157255  -0.177206   0.497269  -0.120919
   33  C  7  X   -0.016985  -0.008083  -0.161406   0.023919  -0.060817
   34  C  7  Y    0.029996   0.104848  -0.342716  -0.442060  -0.027612
   35  C  7  Z    0.144234  -0.023840   0.438622   0.006931   0.165347
   36  C  8  S   -0.048152  -0.022189   0.012517  -0.040376   0.093494
   37  C  8  S    0.268146   0.131610  -0.102909   0.244290  -0.574077
   38  C  8  X   -0.172124  -0.031630  -0.096778  -0.114254   0.101807
   39  C  8  Y   -0.039612   0.031683  -0.407913  -0.137302  -0.237766
   40  C  8  Z    0.195876   0.006655   0.344912   0.297020  -0.159449
   41  C  9  S    0.114227  -0.047299   0.052864   0.079476  -0.096743
   42  C  9  S   -0.659001   0.283671  -0.316938  -0.473740   0.565905
   43  C  9  X    0.131909  -0.045293  -0.197403  -0.084054  -0.047574
   44  C  9  Y    0.274491  -0.145495  -0.217230  -0.011122  -0.286877
   45  C  9  Z    0.131969   0.167702   0.204726   0.218005  -0.171318
   46  O 10  S   -0.013257   0.020000  -0.013320  -0.011656   0.004366
   47  O 10  S    0.074777  -0.132211   0.086168   0.068678  -0.015172
   48  O 10  X   -0.057781   0.004963   0.084680   0.027776   0.023089
   49  O 10  Y   -0.101303   0.174744  -0.003426  -0.029607   0.047962
   50  O 10  Z   -0.077223   0.097142  -0.145180  -0.096949   0.001827
   51  H 11  S    0.242095   0.115217  -0.220242   0.203314   0.431573
   52  H 12  S   -0.206666  -0.153959   0.190999  -0.159560  -0.359723
   53  H 13  S    0.232540  -0.184672  -0.262193   0.195905   0.562753
   54  H 14  S   -0.405706   0.136422   0.174822  -0.143845   0.036031
   55  H 15  S    0.200753  -0.449800  -0.184369   0.090235   0.240788
   56  H 16  S    0.160495  -0.519035  -0.077468  -0.308124   0.142618
   57  H 17  S    0.319096  -0.294061   0.054865  -0.601778   0.011940
   58  H 18  S    0.384349   0.091367   0.441252  -0.356546   0.103034
   59  H 19  S    0.268027   0.043272   0.655364  -0.135924   0.223886
   60  H 20  S   -0.095480  -0.110833   0.543076   0.076986   0.527427

                     46         47         48         49         50
                    0.6749     0.6872     0.6919     0.7025     0.7183
                     A          A          A          A          A   
    1  C  1  S    0.000576   0.027603   0.068697   0.188188   0.009620
    2  C  1  S   -0.002371  -0.157010  -0.454829  -1.207670  -0.074640
    3  C  1  X   -0.125730  -0.030760  -0.049474   0.046949   0.009949
    4  C  1  Y    0.009044  -0.038275  -0.288375  -0.117128  -0.000388
    5  C  1  Z   -0.034223  -0.148890   0.008074   0.466405   0.231122
    6  C  2  S   -0.022279  -0.129675   0.026101  -0.068429   0.084148
    7  C  2  S    0.136774   0.816906  -0.152024   0.389412  -0.546583
    8  C  2  X    0.262886   0.026573  -0.041296  -0.021591   0.034960
    9  C  2  Y   -0.067731  -0.152202  -0.073590   0.049079   0.102438
   10  C  2  Z    0.012696   0.267882  -0.292885  -0.025187  -0.175671
   11  C  3  S    0.088534   0.042721  -0.021032   0.060290  -0.020057
   12  C  3  S   -0.502461  -0.244629   0.125932  -0.371035   0.122071
   13  C  3  X   -0.888906   0.020386  -0.074807   0.152967  -0.227551
   14  C  3  Y    0.020390   0.308999   0.203965  -0.115535  -0.352313
   15  C  3  Z   -0.065427   0.320501  -0.580146   0.162189  -0.083143
   16  C  4  S   -0.124193   0.032141   0.093275  -0.030371  -0.034179
   17  C  4  S    0.719884  -0.203941  -0.556425   0.179780   0.212185
   18  C  4  X   -0.748927  -0.057719  -0.491159   0.110609  -0.150402
   19  C  4  Y   -0.064114   0.155353   0.141639  -0.060074   0.012205
   20  C  4  Z   -0.293243  -0.273153   0.106580  -0.036077   0.167880
   21  C  5  S    0.044592  -0.039288  -0.133135   0.044051  -0.012907
   22  C  5  S   -0.270833   0.251116   0.833064  -0.273240   0.054947
   23  C  5  X    0.217063   0.081502  -0.141460   0.049179   0.061502
   24  C  5  Y    0.060721   0.008697  -0.068477   0.017503   0.215020
   25  C  5  Z    0.097486  -0.045404   0.293056  -0.062079  -0.122301
   26  C  6  S   -0.041789   0.083914   0.024943  -0.024718   0.133398
   27  C  6  S    0.257070  -0.522269  -0.140119   0.150542  -0.855975
   28  C  6  X   -0.098500  -0.015758   0.020263   0.000569  -0.224476
   29  C  6  Y    0.045926  -0.143470   0.082189   0.000096  -0.004821
   30  C  6  Z   -0.094509   0.016325  -0.095390  -0.003279   0.295044
   31  C  7  S    0.037694  -0.102075   0.008678   0.022112  -0.135494
   32  C  7  S   -0.234839   0.628917  -0.059190  -0.133618   0.873926
   33  C  7  X    0.062724   0.074840   0.039145  -0.010221   0.131142
   34  C  7  Y    0.084752  -0.087407  -0.015949   0.014763  -0.089511
   35  C  7  Z    0.013296  -0.049316  -0.035512   0.021121  -0.150166
   36  C  8  S   -0.012316   0.118188  -0.010807  -0.022013   0.030694
   37  C  8  S    0.077400  -0.731430   0.074634   0.139220  -0.180013
   38  C  8  X   -0.042186   0.027582  -0.013456   0.004198  -0.104039
   39  C  8  Y   -0.016633  -0.107674  -0.044980   0.026529   0.267505
   40  C  8  Z   -0.082864  -0.155958  -0.018946   0.028165   0.072336
   41  C  9  S    0.014791  -0.034724  -0.037323   0.019726  -0.020846
   42  C  9  S   -0.093115   0.204725   0.222040  -0.116395   0.132621
   43  C  9  X    0.196714   0.210751   0.006931  -0.021690   0.062478
   44  C  9  Y   -0.033810   0.181894  -0.181021  -0.000358   0.106781
   45  C  9  Z   -0.018621  -0.326861   0.129328   0.033842   0.052973
   46  O 10  S   -0.009111  -0.001848   0.011499  -0.003943   0.015591
   47  O 10  S    0.063123   0.019683  -0.075739   0.025205  -0.108594
   48  O 10  X   -0.077249  -0.064825  -0.019627   0.010393  -0.031940
   49  O 10  Y   -0.039353  -0.095269   0.121998  -0.017131   0.066905
   50  O 10  Z   -0.073220   0.035749   0.023233  -0.026372   0.114826
   51  H 11  S   -0.036082  -0.036343   0.035288   0.862457   0.184972
   52  H 12  S    0.005744   0.100966   0.503475   0.778386   0.071119
   53  H 13  S   -0.097752  -0.590002   0.060068  -0.190168   0.381138
   54  H 14  S   -0.016490  -0.075664  -0.414899   0.309595   0.158532
   55  H 15  S   -0.146642  -0.020886   0.391011   0.096955  -0.213392
   56  H 16  S   -0.055983   0.399746   0.231897  -0.090617  -0.220209
   57  H 17  S    0.175255  -0.116695  -0.543418   0.170054   0.163965
   58  H 18  S   -0.117153   0.210560   0.074124  -0.085272   0.691037
   59  H 19  S    0.085935  -0.382467  -0.015560   0.086661  -0.571893
   60  H 20  S   -0.040532   0.455056   0.005742  -0.092902  -0.123261

                     51         52         53         54         55
                    0.7406     0.7831     0.7977     0.8486     0.9145
                     A          A          A          A          A   
    1  C  1  S   -0.044078   0.006535   0.020227   0.001191   0.005164
    2  C  1  S    0.301828  -0.041115  -0.137075  -0.007022  -0.039806
    3  C  1  X    0.054417  -0.044151  -0.014592   0.019708  -0.010894
    4  C  1  Y    0.127369  -0.080405   0.054315   0.121144  -0.035258
    5  C  1  Z   -0.060629  -0.345896  -0.064564   0.071658  -0.083637
    6  C  2  S   -0.026532  -0.074859  -0.038253  -0.002358  -0.007340
    7  C  2  S    0.163569   0.504104   0.258315   0.014569   0.055396
    8  C  2  X   -0.061724  -0.019092   0.028279   0.007372  -0.001862
    9  C  2  Y   -0.021093  -0.035416  -0.023334  -0.070081   0.057815
   10  C  2  Z    0.206856   0.031230  -0.009069   0.001626  -0.033051
   11  C  3  S    0.155988   0.081044  -0.079312  -0.019191   0.010863
   12  C  3  S   -0.992688  -0.509065   0.518947   0.128616  -0.071960
   13  C  3  X    0.329801   0.230791  -0.144073  -0.093851   0.052178
   14  C  3  Y   -0.353007   0.465290   0.410359  -0.009403   0.046379
   15  C  3  Z   -0.072832  -0.388815   0.243503   0.113514  -0.054921
   16  C  4  S    0.048070  -0.078529   0.084828  -0.026652  -0.045552
   17  C  4  S   -0.315951   0.501397  -0.529696   0.168505   0.299105
   18  C  4  X   -0.267644   0.047710   0.041737   0.171352   0.074263
   19  C  4  Y    0.083496  -0.435411  -0.522824  -0.006900  -0.169728
   20  C  4  Z   -0.296733   0.333758  -0.340201  -0.304163   0.296567
   21  C  5  S   -0.041326   0.075190   0.044962  -0.024871  -0.050051
   22  C  5  S    0.266368  -0.506959  -0.305608   0.174657   0.375062
   23  C  5  X    0.087565   0.026093   0.109717   0.191621   0.253252
   24  C  5  Y    0.064346  -0.038279   0.164029  -0.641757  -0.139191
   25  C  5  Z    0.024103  -0.023294  -0.120526  -0.078734  -0.395085
   26  C  6  S    0.042805   0.000569   0.030152   0.049507   0.057630
   27  C  6  S   -0.279288  -0.002602  -0.208285  -0.332578  -0.436863
   28  C  6  X   -0.011682  -0.229633  -0.071810  -0.187771   0.017412
   29  C  6  Y    0.020208   0.009428  -0.085232   0.280355   0.569249
   30  C  6  Z   -0.044028   0.293903   0.120487   0.157957  -0.093421
   31  C  7  S    0.000159  -0.027543  -0.005861   0.045454   0.077258
   32  C  7  S    0.002936   0.192176   0.041678  -0.306134  -0.570191
   33  C  7  X    0.087414  -0.039355   0.114435  -0.188521   0.213110
   34  C  7  Y   -0.154748   0.037448  -0.247454  -0.236851  -0.126323
   35  C  7  Z   -0.134396   0.121178  -0.226773   0.471579  -0.499736
   36  C  8  S   -0.086021   0.013447  -0.099366  -0.012635  -0.052256
   37  C  8  S    0.567011  -0.092915   0.673133   0.085145   0.394880
   38  C  8  X   -0.046733  -0.055492   0.017162   0.113930   0.258659
   39  C  8  Y    0.115692   0.236302   0.149025   0.561984  -0.347255
   40  C  8  Z    0.098277   0.028412   0.090926  -0.388754  -0.323817
   41  C  9  S    0.027599  -0.045287  -0.017556  -0.043729   0.065389
   42  C  9  S   -0.163379   0.292341   0.104768   0.287671  -0.434686
   43  C  9  X   -0.039159  -0.040507  -0.313973   0.123774   0.010595
   44  C  9  Y   -0.264817   0.045583  -0.603308   0.228828  -0.318831
   45  C  9  Z    0.284524   0.124749   0.262321  -0.123786  -0.606275
   46  O 10  S   -0.002263   0.023546  -0.006900   0.015543  -0.071036
   47  O 10  S    0.014101  -0.166577   0.052072  -0.109342   0.521384
   48  O 10  X    0.002363  -0.004098   0.089074  -0.047338   0.053147
   49  O 10  Y    0.079733   0.125964   0.103891   0.023265  -0.369725
   50  O 10  Z   -0.092023   0.159651  -0.144505   0.141737  -0.429250
   51  H 11  S   -0.090809  -0.251837   0.048383   0.112947  -0.052522
   52  H 12  S   -0.302004   0.023552   0.027351  -0.075876   0.026932
   53  H 13  S   -0.155649  -0.267557  -0.116280  -0.047206   0.027960
   54  H 14  S    0.807116  -0.173725  -0.527279  -0.043906   0.008020
   55  H 15  S    0.500252   0.738228  -0.323484  -0.160547   0.099601
   56  H 16  S    0.386689  -0.627215   0.356795   0.165699  -0.334893
   57  H 17  S   -0.085921   0.204820   0.271271  -0.562589  -0.177181
   58  H 18  S    0.125831   0.256528   0.132200   0.424752   0.369461
   59  H 19  S   -0.091775   0.012547  -0.155987   0.561207  -0.161648
   60  H 20  S   -0.345801  -0.151985  -0.392724  -0.546285   0.065020

                     56         57         58         59         60
                    0.9412     0.9768     1.0246     1.0501     1.1409
                     A          A          A          A          A   
    1  C  1  S   -0.008970  -0.005821   0.017930  -0.110861  -0.006868
    2  C  1  S    0.063049   0.046042  -0.143364   0.895303   0.057389
    3  C  1  X   -0.154429  -0.030106  -0.018895   0.053355   0.005552
    4  C  1  Y   -0.883614  -0.191167   0.003376  -0.353293  -0.014769
    5  C  1  Z   -0.224785   0.002744  -0.184684   1.053784   0.062796
    6  C  2  S    0.016304   0.003572  -0.019764   0.104498   0.006338
    7  C  2  S   -0.141928  -0.038516   0.155794  -0.851403  -0.050165
    8  C  2  X    0.157875   0.043693   0.008273   0.057146  -0.004994
    9  C  2  Y    0.838670   0.174723   0.131947  -0.417576  -0.041490
   10  C  2  Z    0.309153   0.128794  -0.136915   1.091926   0.066605
   11  C  3  S    0.055916   0.009229   0.002197   0.011104   0.001960
   12  C  3  S   -0.365975  -0.062490  -0.008787  -0.070813  -0.013233
   13  C  3  X    0.063979   0.011101  -0.049422   0.015604   0.011990
   14  C  3  Y    0.086374   0.036871   0.004324   0.334431   0.055308
   15  C  3  Z    0.390180   0.156947   0.091410  -0.121820  -0.052351
   16  C  4  S    0.004548  -0.002939  -0.032560  -0.011371   0.016743
   17  C  4  S   -0.032317   0.011914   0.219827   0.076116  -0.111885
   18  C  4  X   -0.004349   0.106434   0.142864   0.005184  -0.117223
   19  C  4  Y   -0.009707  -0.020432  -0.196894  -0.100059  -0.190873
   20  C  4  Z   -0.076118  -0.248281  -0.238482  -0.004549   0.185711
   21  C  5  S    0.001170   0.036369  -0.052777  -0.003423  -0.069288
   22  C  5  S   -0.005604  -0.275047   0.448649   0.029724   0.571350
   23  C  5  X    0.019418  -0.073518   0.507055   0.070833   0.273301
   24  C  5  Y    0.079332  -0.625924  -0.027803  -0.007984   0.392146
   25  C  5  Z   -0.032669   0.284182  -0.639707  -0.102512  -0.463322
   26  C  6  S    0.016129  -0.074571   0.048137   0.007750   0.058745
   27  C  6  S   -0.112167   0.554221  -0.416261  -0.066469  -0.480564
   28  C  6  X    0.052912  -0.344078   0.260205   0.016893   0.449184
   29  C  6  Y   -0.156764   0.419510   0.614566   0.096335   0.023407
   30  C  6  Z   -0.035869   0.339660  -0.518763  -0.038551  -0.656959
   31  C  7  S    0.007383  -0.043494   0.032193   0.013706  -0.069703
   32  C  7  S   -0.061460   0.371757  -0.231198  -0.106027   0.576513
   33  C  7  X   -0.011296  -0.058197   0.002305   0.043080  -0.395461
   34  C  7  Y   -0.244090   0.836293   0.361205  -0.006873   0.366189
   35  C  7  Z    0.083534  -0.027509  -0.102285  -0.084736   0.676937
   36  C  8  S   -0.011097   0.045108   0.000195  -0.009085   0.071709
   37  C  8  S    0.090613  -0.371580  -0.015909   0.071658  -0.596411
   38  C  8  X    0.079126  -0.309796  -0.107001   0.017024  -0.207089
   39  C  8  Y    0.073922   0.159538  -0.396281  -0.127687   0.716327
   40  C  8  Z   -0.180839   0.656959   0.243051  -0.024361   0.380964
   41  C  9  S   -0.015024   0.061023  -0.038892  -0.011674   0.015310
   42  C  9  S    0.102065  -0.412428   0.267084   0.080692  -0.109981
   43  C  9  X    0.034669  -0.059037  -0.150662  -0.028000   0.012474
   44  C  9  Y    0.044925  -0.315249   0.333928   0.055823  -0.434573
   45  C  9  Z   -0.040463   0.018724   0.674681   0.115473  -0.346837
   46  O 10  S    0.003881  -0.029819   0.064260   0.011978  -0.040324
   47  O 10  S   -0.027036   0.218309  -0.486357  -0.091020   0.313847
   48  O 10  X   -0.009488   0.023442  -0.005180  -0.001847   0.019957
   49  O 10  Y    0.007906  -0.104019   0.337383   0.064067  -0.178433
   50  O 10  Z    0.031780  -0.221395   0.382950   0.071397  -0.261157
   51  H 11  S   -0.595685  -0.107512  -0.050114   0.103646   0.007561
   52  H 12  S    0.584214   0.120360   0.020276   0.103395   0.000171
   53  H 13  S    0.615148   0.123843   0.060420  -0.143072  -0.020417
   54  H 14  S    0.127712   0.028441  -0.003709  -0.207891  -0.026296
   55  H 15  S   -0.058602  -0.056477  -0.057465   0.155340   0.042883
   56  H 16  S    0.056993   0.148260   0.026198  -0.045096  -0.091417
   57  H 17  S    0.052757  -0.384753  -0.069945   0.000710   0.127831
   58  H 18  S   -0.067125   0.269585   0.085206   0.038359  -0.238286
   59  H 19  S    0.128146  -0.292752  -0.058332  -0.025969   0.227090
   60  H 20  S   -0.113721   0.112777   0.297574   0.056771  -0.210222

 THE NUCLEAR REPULSION AT THE IRC POINT IS      495.1976203711

 * * * IRC RESTART INFORMATION * * *
 COORDINATES FOR $DATA AND ENTIRE $IRC GROUP FOLLOW

 COORDINATES OF SYMMETRY UNIQUE ATOMS (ANGS)
   ATOM   CHARGE       X              Y              Z
 ------------------------------------------------------------
 C           6.0   2.6205373064  -0.8376693272  -2.9572552078
 C           6.0   2.6871389819  -1.2585305734  -1.7196400074
 C           6.0   2.9692706258  -0.3624203795  -0.5164443221
 C           6.0   4.4934851110  -0.3125729955  -0.0889548941
 C           6.0   5.3657446347  -1.2053757351  -0.9683456960
 C           6.0   6.0354535870  -0.7340607322  -1.9987068961
 C           6.0   6.0196372115   0.7156934004  -2.3265885081
 C           6.0   5.5282470168   1.6028057508  -1.4822953628
 C           6.0   4.9777228193   1.1614713697  -0.1442623815
 O           8.0   4.9012138280   1.9112674191   0.8182590107
 H           1.0   2.4322636120  -1.5113774966  -3.7816350495
 H           1.0   2.7492587888   0.2036779358  -3.2197382431
 H           1.0   2.5593202624  -2.3127024267  -1.4995037108
 H           1.0   2.6335600286   0.6468874325  -0.7438058121
 H           1.0   2.3844725276  -0.7088637311   0.3331337807
 H           1.0   4.5655907763  -0.6474808796   0.9452603935
 H           1.0   5.3718802346  -2.2627940770  -0.7314671269
 H           1.0   6.6201106366  -1.3845740780  -2.6360429266
 H           1.0   6.4538090255   1.0210237787  -3.2720466882
 H           1.0   5.5536334040   2.6667951628  -1.6799363215
 $IRC   PACE=GS2        STRIDE= 0.10000   NPOINT=??
        STOTAL=  9.998480   NEXTPT= 101
        NPRT= 0   NPUN= 0   SADDLE=.FALSE.
        GA(   1)= 2.126906840E-03,-5.157205343E-05,-1.924502791E-04
        GA(   4)=-1.913673077E-04, 2.427317310E-04, 2.128230275E-05
        GA(   7)=-9.420977944E-05, 2.040409667E-04, 8.047824950E-05
        GA(  10)=-1.334078195E-04,-1.672591122E-06, 2.119166526E-04
        GA(  13)=-1.343381096E-04,-3.405903154E-05, 1.982308189E-04
        GA(  16)=-6.048420610E-04,-2.839185025E-05,-1.267809732E-04
        GA(  19)=-1.150818167E-03,-9.405849762E-05,-3.829031243E-04
        GA(  22)=-8.523927043E-04,-5.957078216E-05,-2.169156889E-04
        GA(  25)= 9.326838470E-06,-6.016211555E-05, 1.427770880E-04
        GA(  28)= 1.017650524E-03,-2.083009495E-04, 3.537053460E-04
        GA(  31)= 1.752142761E-04,-6.678425717E-06,-2.246553556E-05
        GA(  34)= 3.450571287E-04,-3.976190551E-05,-3.092410924E-05
        GA(  37)=-1.873590236E-04, 7.170984328E-05, 1.335984482E-05
        GA(  40)= 7.340305989E-06, 2.192326083E-05, 7.701637495E-06
        GA(  43)=-2.521536001E-05, 2.445018051E-05, 6.636735956E-06
        GA(  46)=-1.691926160E-05, 2.269250910E-06, 8.299424793E-06
        GA(  49)= 1.301300229E-05, 1.863952918E-05, 3.278413547E-05
        GA(  52)=-5.809272784E-05, 5.090929950E-06,-1.610654253E-05
        GA(  55)=-1.465360022E-04,-1.181881807E-05,-5.526892162E-05
        GA(  58)=-9.901049555E-05, 5.191326773E-06,-3.335707062E-05
 $END   
 A GS2 RESTART ALSO REQUIRES THE UPDATED $HESS GROUP FROM THE PUNCH FILE
 ......DONE WITH THIS PORTION OF THE IRC......
 STEP CPU TIME =     0.01 TOTAL CPU TIME =        212.9 (      3.5 MIN)
 TOTAL WALL CLOCK TIME=        214.2 SECONDS, CPU UTILIZATION IS    99.37%
               580000  WORDS OF DYNAMIC MEMORY USED
 EXECUTION OF GAMESS TERMINATED NORMALLY Sun Nov  7 21:54:12 2021
 DDI: 263640 bytes (0.3 MB / 0 MWords) used by master data server.

 ----------------------------------------
 CPU timing information for all processes
 ========================================
 0: 197.95 + 15.806 = 212.901
 ----------------------------------------
 ddikick.x: exited gracefully.
----- accounting info -----
Files used on the master node chemcompute-node-0.novalocal were:
-rw-r--r--. 1 chemcomp chemcomp    60523 Nov  7 21:50 /scratch/302822/337923.F05
-rw-rw-r--. 1 chemcomp chemcomp 17281536 Nov  7 21:54 /scratch/302822/337923.F08
-rw-rw-r--. 1 chemcomp chemcomp 52428800 Nov  7 21:54 /scratch/302822/337923.F10
Sun Nov  7 21:54:15 UTC 2021
0.126u 0.096s 3:37.82 0.0%	0+0k 120+328io 0pf+0w
Finishing Up...
Looking for IR data...
Looking for Raman data...
vibramans not found
Looking for thermodynamics data...
Looking for UV-Vis data...
302822
